 Q-Chem 5.1, Q-Chem, Inc., Pleasanton, CA (2018)
 Q-Chem 5.1.1 for Intel X86 EM64T Linux

User input:
--------------------------------------------------------------
$molecule
0 1
O
C  1 1.520940
H  2 1.090391 1 106.849456
C  2 1.504543 1 115.381433 3 -124.428609 0
C  4 1.358447 2 122.398281 1 -54.665698 0
C  5 1.515594 4 124.939621 2 5.939217 0
H  6 1.088187 5 113.334987 4 14.068541 0
H  6 1.098833 5 109.197535 4 133.963037 0
H  6 1.100058 5 110.791383 4 -109.481991 0
C  5 1.519544 4 122.394040 2 -174.054594 0
H  10 1.099719 5 108.331046 4 139.437005 0
H  10 1.102731 5 108.881979 4 -106.412455 0
C  10 1.531842 5 113.282798 4 16.128763 0
H  13 1.096961 10 110.473019 5 -170.083518 0
H  13 1.098779 10 109.801580 5 72.379376 0
C  13 1.531487 10 108.755190 5 -48.400570 0
H  16 1.097997 13 111.274354 10 -175.428042 0
H  16 1.099932 13 108.406171 10 -58.548620 0
C  4 1.549751 2 114.574140 1 125.553090 0
C  19 1.553809 4 110.177862 2 64.960843 0
H  20 1.095990 19 111.197951 4 63.695473 0
H  20 1.096442 19 111.739237 4 -56.891625 0
H  20 1.097235 19 110.215749 4 -176.374903 0
C  19 1.555499 4 110.364562 2 -55.287439 0
H  24 1.094987 19 113.041334 4 67.398963 0
H  24 1.095730 19 110.683986 4 -54.008222 0
H  24 1.097109 19 109.420184 4 -173.132489 0
C  2 1.556231 1 89.413760 3 109.072441 0
H  28 1.093828 2 112.134178 1 96.489966 0
C  28 1.501991 2 119.549879 1 -131.107970 0
C  30 1.355017 28 119.868567 2 80.962826 0
H  31 1.088219 30 116.922434 28 1.201355 0
C  31 1.455599 30 127.178844 28 179.757455 0
H  33 1.088075 31 118.095308 30 0.700064 0
C  33 1.346814 31 123.214952 30 -179.325317 0
H  35 1.084953 33 121.921486 31 -179.890947 0
H  35 1.086989 33 121.517166 31 0.208648 0
O  28 1.506577 2 89.620839 1 -14.066116 0
C  30 1.511505 28 114.359846 2 -99.673973 0
H  39 1.091570 30 112.732391 28 176.824927 0
H  39 1.098451 30 111.269282 28 55.842417 0
H  39 1.099223 30 110.613705 28 -62.480705 0
$end

$rem
BASIS = VDZ
METHOD  = B97M-rV
JOBTYPE = OPT
$end
--------------------------------------------------------------

   16    -773.5661601105      2.44e-09  Convergence criterion met
 Total energy in the final basis set =     -773.5661601105
   11    -773.5679015842      9.63e-09  Convergence criterion met
 Total energy in the final basis set =     -773.5679015842
   12    -773.5679014446      5.64e-09  Convergence criterion met
 Total energy in the final basis set =     -773.5679014446
   12    -773.5680420428      6.42e-09  Convergence criterion met
 Total energy in the final basis set =     -773.5680420428
   11    -773.5680840568      5.83e-09  Convergence criterion met
 Total energy in the final basis set =     -773.5680840568
   11    -773.5681389604      3.40e-09  Convergence criterion met
 Total energy in the final basis set =     -773.5681389604
   11    -773.5681517894      3.42e-09  Convergence criterion met
 Total energy in the final basis set =     -773.5681517894
   10    -773.5681587482      6.49e-09  Convergence criterion met
 Total energy in the final basis set =     -773.5681587482
   10    -773.5681601493      4.16e-09  Convergence criterion met
 Total energy in the final basis set =     -773.5681601493
    9    -773.5681623784      7.45e-09  Convergence criterion met
 Total energy in the final basis set =     -773.5681623784
    9    -773.5681636745      7.44e-09  Convergence criterion met
 Total energy in the final basis set =     -773.5681636745

             Standard Nuclear Orientation (Angstroms)
    I     Atom           X                Y                Z
 ----------------------------------------------------------------
    1      O       0.2451967355     1.6008405029    -1.7004705729
    2      C       0.0899936585     0.4600856002    -0.7302336443
    3      H       0.5537985916    -0.4224765527    -1.1925638447
    4      C      -1.3099223337     0.1715021778    -0.2952717172
    5      C      -2.1144248877     1.1268552380     0.2490348455
    6      C      -1.7601108228     2.5861142760     0.3637214952
    7      H      -0.8806041786     2.8736775398    -0.2221680759
    8      H      -2.6111989718     3.1977314318     0.0106922170
    9      H      -1.6049201039     2.8672093145     1.4226164270
   10      C      -3.4812896056     0.8030352003     0.8046861928
   11      H      -3.6321551160     1.3909030470     1.7297158520
   12      H      -4.2541509935     1.1755692859     0.0995891749
   13      C      -3.6904068624    -0.6849107464     1.0654509637
   14      H      -4.7473671770    -0.8903162183     1.3020314625
   15      H      -3.1048363441    -0.9972506126     1.9502965813
   16      C      -3.2483577024    -1.4657864224    -0.1660150850
   17      H      -3.4655801654    -2.5435714418    -0.0643220208
   18      H      -3.8286311739    -1.1069537719    -1.0384814412
   19      C      -1.7447832040    -1.2925023900    -0.4727832994
   20      C      -0.9105699213    -2.1928851619     0.4639507489
   21      H      -1.1101423238    -1.9622222181     1.5240104670
   22      H       0.1728328119    -2.0625182247     0.2922979778
   23      H      -1.1474561135    -3.2575789720     0.2920117545
   24      C      -1.5268728960    -1.7505636312    -1.9323488290
   25      H      -0.4622825705    -1.8185629102    -2.2059452248
   26      H      -2.0190002031    -1.0597072352    -2.6380763615
   27      H      -1.9635503433    -2.7551368954    -2.0713179134
   28      C       1.1303424078     1.1225214002     0.1984229299
   29      H       0.6583974341     1.7376714736     0.9831235329
   30      C       2.2266999836     0.2836010244     0.7649347248
   31      C       3.2899519952    -0.0528795191    -0.0142767041
   32      H       3.3001532066     0.3433156252    -1.0353215634
   33      C       4.4289833779    -0.8617340616     0.3705371808
   34      H       4.4620502406    -1.2460980821     1.3952201930
   35      C       5.4474500102    -1.1588507986    -0.4675131727
   36      H       6.2951697802    -1.7707277909    -0.1509273815
   37      H       5.4583350544    -0.7952818664    -1.5000186696
   38      O       1.5629411705     1.9977823611    -0.9322990409
   39      C       2.0124234825    -0.1340609862     2.1914080968
   40      H       2.7538534312    -0.8646345543     2.5422778869
   41      H       1.0104753576    -0.5830278271     2.3262400566
   42      H       2.0528307184     0.7406084508     2.8677612709
 ----------------------------------------------------------------

    8    -773.5681638598      6.24e-09  Convergence criterion met
 Total energy in the final basis set =     -773.5681638598
 Final energy is   -773.568163859839
 **  OPTIMIZATION CONVERGED  **

                    Orbital Energies (a.u.)
 --------------------------------------------------------------

 Alpha MOs
 -- Occupied --
-19.202 -19.199 -10.255 -10.253 -10.217 -10.213 -10.212 -10.200
-10.200 -10.195 -10.195 -10.194 -10.189 -10.188 -10.187 -10.182
-10.178 -10.178  -1.072  -0.876  -0.839  -0.807  -0.776  -0.763
 -0.746  -0.705  -0.671  -0.664  -0.662  -0.656  -0.604  -0.572
 -0.559  -0.542  -0.507  -0.495  -0.478  -0.462  -0.459  -0.440
 -0.432  -0.429  -0.413  -0.409  -0.400  -0.399  -0.395  -0.384
 -0.382  -0.379  -0.374  -0.365  -0.357  -0.350  -0.340  -0.338
 -0.333  -0.330  -0.324  -0.316  -0.305  -0.302  -0.301  -0.294
 -0.277  -0.229  -0.215  -0.203

          Ground-State Mulliken Net Atomic Charges

     Atom                 Charge (a.u.)
  ----------------------------------------
      1 O                    -0.294803
      2 C                     0.084319
      3 H                     0.100133
      4 C                     0.092380
      5 C                    -0.161407
      6 C                    -0.267581
      7 H                     0.173626
      8 H                     0.119309
      9 H                     0.118157
     10 C                    -0.174873
     11 H                     0.105029
     12 H                     0.115043
     13 C                    -0.147211
     14 H                     0.099245
     15 H                     0.098815
     16 C                    -0.121792
     17 H                     0.093730
     18 H                     0.096027
     19 C                    -0.369507
     20 C                    -0.233618
     21 H                     0.121916
     22 H                     0.119994
     23 H                     0.109537
     24 C                    -0.199437
     25 H                     0.120374
     26 H                     0.116029
     27 H                     0.107652
     28 C                     0.125105
     29 H                     0.095085
     30 C                    -0.082731
     31 C                    -0.096777
     32 H                     0.103357
     33 C                    -0.070956
     34 H                     0.084340
     35 C                    -0.207227
     36 H                     0.106558
     37 H                     0.111033
     38 O                    -0.306195
     39 C                    -0.265133
     40 H                     0.122357
     41 H                     0.126948
     42 H                     0.133148
  ----------------------------------------
  Sum of atomic charges =     0.000000

                    Cartesian Multipole Moments
 -----------------------------------------------------------------
    Charge (ESU x 10^10)
                 0.0000
    Dipole Moment (Debye)
         X      -1.7146      Y      -2.4403      Z       3.0013
       Tot       4.2311
    Quadrupole Moments (Debye-Ang)
        XX    -107.0286     XY      -5.9507     YY    -117.0136
        XZ       1.8464     YZ       5.9260     ZZ    -113.6972

 Total job time:  12392.53s(wall), 92503.81s(cpu)
        *  Thank you very much for using Q-Chem.  Have a nice day.  *
