 Q-Chem 5.1, Q-Chem, Inc., Pleasanton, CA (2018)
 Q-Chem 5.1.1 for Intel X86 EM64T Linux

User input:
--------------------------------------------------------------

$molecule
0 1
O          0.24520        1.60084       -1.70047
C          0.08999        0.46009       -0.73023
H          0.55380       -0.42248       -1.19256
C         -1.30992        0.17150       -0.29527
C         -2.11442        1.12686        0.24903
C         -1.76011        2.58611        0.36372
H         -0.88060        2.87368       -0.22217
H         -2.61120        3.19773        0.01069
H         -1.60492        2.86721        1.42262
C         -3.48129        0.80304        0.80469
H         -3.63216        1.39090        1.72972
H         -4.25415        1.17557        0.09959
C         -3.69041       -0.68491        1.06545
H         -4.74737       -0.89032        1.30203
H         -3.10484       -0.99725        1.95030
C         -3.24836       -1.46579       -0.16602
H         -3.46558       -2.54357       -0.06432
H         -3.82863       -1.10695       -1.03848
C         -1.74478       -1.29250       -0.47278
C         -0.91057       -2.19289        0.46395
H         -1.11014       -1.96222        1.52401
H          0.17283       -2.06252        0.29230
H         -1.14746       -3.25758        0.29201
C         -1.52687       -1.75056       -1.93235
H         -0.46228       -1.81856       -2.20595
H         -2.01900       -1.05971       -2.63808
H         -1.96355       -2.75514       -2.07132
C          1.13034        1.12252        0.19842
C          2.22670        0.28360        0.76493
C          3.28995       -0.05288       -0.01428
H          3.30015        0.34332       -1.03532
C          4.42898       -0.86173        0.37054
H          4.46205       -1.24610        1.39522
C          5.44745       -1.15885       -0.46751
H          6.29517       -1.77073       -0.15093
H          5.45834       -0.79528       -1.50002
C          2.01242       -0.13406        2.19141
H          2.75385       -0.86463        2.54228
H          1.01048       -0.58303        2.32624
H          2.05283        0.74061        2.86776
H          1.40027        1.71361        1.04851
$end

$rem
BASIS = VDZ
METHOD  = B97M-rV
JOBTYPE = OPT
$end
--------------------------------------------------------------

   21    -698.3893198267      6.03e-09  Convergence criterion met
 Total energy in the final basis set =     -698.3893198267
   13    -698.4295336613      3.14e-09  Convergence criterion met
 Total energy in the final basis set =     -698.4295336613
   13    -698.4680447851      3.34e-09  Convergence criterion met
 Total energy in the final basis set =     -698.4680447851
   13    -698.5001793633      3.15e-09  Convergence criterion met
 Total energy in the final basis set =     -698.5001793633
   13    -698.5180885860      1.89e-09  Convergence criterion met
 Total energy in the final basis set =     -698.5180885860
   12    -698.5244497997      5.30e-09  Convergence criterion met
 Total energy in the final basis set =     -698.5244497997
   12    -698.5268091136      5.85e-09  Convergence criterion met
 Total energy in the final basis set =     -698.5268091136
   12    -698.5281908736      5.62e-09  Convergence criterion met
   11    -698.5296160456      3.31e-09  Convergence criterion met
 Total energy in the final basis set =     -698.5296160456
   10    -698.5296356985      6.73e-09  Convergence criterion met
 Total energy in the final basis set =     -698.5296356985
   10    -698.5296502883      4.89e-09  Convergence criterion met
 Total energy in the final basis set =     -698.5296502883
   10    -698.5296558350      2.21e-09  Convergence criterion met
 Total energy in the final basis set =     -698.5296558350
    9    -698.5296618296      9.05e-09  Convergence criterion met
 Total energy in the final basis set =     -698.5296618296
    9    -698.5296648928      5.60e-09  Convergence criterion met
 Total energy in the final basis set =     -698.5296648928

             Standard Nuclear Orientation (Angstroms)
    I     Atom           X                Y                Z
 ----------------------------------------------------------------
    1      O       0.9084727446     1.2739840748    -1.0612335654
    2      C       0.2242718739     0.1133686569    -0.4071382152
    3      H       0.6881690987    -0.8208964732    -0.7315828538
    4      C      -1.2514020764     0.0498603224    -0.2281281036
    5      C      -2.0619322299     1.1329555057    -0.0728418322
    6      C      -1.6281584805     2.5703653044    -0.1990366899
    7      H      -0.6395370048     2.6856998177    -0.6550116422
    8      H      -2.3595416799     3.1224441424    -0.8186830992
    9      H      -1.6371452066     3.0674147494     0.7901584113
   10      C      -3.5313107916     0.9994813917     0.2593544402
   11      H      -3.7990420852     1.7947036513     0.9808348473
   12      H      -4.1294096419     1.2240049416    -0.6492281835
   13      C      -3.9077887007    -0.3744312664     0.8000724071
   14      H      -5.0031796044    -0.4778787784     0.8688369742
   15      H      -3.5161360840    -0.4951468982     1.8269223874
   16      C      -3.3190889748    -1.4339194595    -0.1210342535
   17      H      -3.6391158831    -2.4509850336     0.1675556474
   18      H      -3.7001339912    -1.2613351282    -1.1463001630
   19      C      -1.7755037751    -1.3996265637    -0.1616593227
   20      C      -1.2038259132    -2.0966343829     1.0921259607
   21      H      -1.5524554647    -1.6080037155     2.0176783664
   22      H      -0.1002382580    -2.0744116012     1.0982463540
   23      H      -1.5149129322    -3.1559699591     1.1199601538
   24      C      -1.3504015020    -2.1996396553    -1.4139404000
   25      H      -0.2695432085    -2.4058891403    -1.4500082184
   26      H      -1.6293227530    -1.6630840066    -2.3366834789
   27      H      -1.8655735938    -3.1761939425    -1.4159610274
   28      C       1.1567332290     0.9925532603     0.3695218463
   29      C       2.5152627658     0.5457389593     0.7565715713
   30      C       3.4471893615     0.2943819948    -0.2020353720
   31      H       3.1441444109     0.4759741242    -1.2388785098
   32      C       4.8030459973    -0.1726840902     0.0028284136
   33      H       5.1342136755    -0.3447272046     1.0324241254
   34      C       5.6758050010    -0.4045370716    -1.0038623511
   35      H       6.6936136475    -0.7527086590    -0.8158907347
   36      H       5.3923544585    -0.2493460118    -2.0497925757
   37      C       2.7126589487     0.3931148197     2.2373173107
   38      H       3.7304473885     0.0784785602     2.5022947362
   39      H       2.0089865328    -0.3489644830     2.6605106512
   40      H       2.5093793866     1.3458619736     2.7606766059
   41      H       0.6817187805     1.7171725446     1.0444792807
 ----------------------------------------------------------------

    9    -698.5296655885      3.08e-09  Convergence criterion met
 Total energy in the final basis set =     -698.5296655885
 Final energy is   -698.529665588466
 **  OPTIMIZATION CONVERGED  **

                    Orbital Energies (a.u.)
 --------------------------------------------------------------

 Alpha MOs
 -- Occupied --
-19.168 -10.247 -10.247 -10.214 -10.206 -10.201 -10.195 -10.194
-10.190 -10.187 -10.185 -10.183 -10.182 -10.181 -10.178 -10.176
-10.170  -1.042  -0.833  -0.799  -0.769  -0.746  -0.744  -0.684
 -0.665  -0.661  -0.650  -0.646  -0.612  -0.567  -0.554  -0.540
 -0.501  -0.491  -0.474  -0.456  -0.437  -0.434  -0.425  -0.410
 -0.405  -0.401  -0.395  -0.391  -0.382  -0.377  -0.371  -0.368
 -0.362  -0.350  -0.347  -0.345  -0.333  -0.329  -0.322  -0.315
 -0.313  -0.299  -0.292  -0.291  -0.283  -0.242  -0.216  -0.196

          Ground-State Mulliken Net Atomic Charges

     Atom                 Charge (a.u.)
  ----------------------------------------
      1 O                    -0.459899
      2 C                     0.025659
      3 H                     0.103630
      4 C                     0.144367
      5 C                    -0.188179
      6 C                    -0.271919
      7 H                     0.170941
      8 H                     0.111945
      9 H                     0.112241
     10 C                    -0.172753
     11 H                     0.100887
     12 H                     0.109655
     13 C                    -0.144360
     14 H                     0.096606
     15 H                     0.099169
     16 C                    -0.121934
     17 H                     0.091576
     18 H                     0.094845
     19 C                    -0.378831
     20 C                    -0.215692
     21 H                     0.111744
     22 H                     0.112094
     23 H                     0.106574
     24 C                    -0.204547
     25 H                     0.118026
     26 H                     0.114459
     27 H                     0.106106
     28 C                     0.083706
     29 C                    -0.061351
     30 C                    -0.109013
     31 H                     0.099696
     32 C                    -0.068096
     33 H                     0.080658
     34 C                    -0.215088
     35 H                     0.103468
     36 H                     0.106378
     37 C                    -0.265452
     38 H                     0.122665
     39 H                     0.126974
     40 H                     0.126043
     41 H                     0.097005
  ----------------------------------------
  Sum of atomic charges =     0.000000

                    Cartesian Multipole Moments
 -----------------------------------------------------------------
    Charge (ESU x 10^10)
                 0.0000
    Dipole Moment (Debye)
         X      -1.2549      Y      -1.0389      Z       2.0904
       Tot       2.6502
    Quadrupole Moments (Debye-Ang)
        XX    -103.8569     XY      -2.8099     YY    -108.5517
        XZ       3.1933     YZ       3.4236     ZZ    -106.7489

 Total job time:  18567.31s(wall), 139594.56s(cpu)
        *  Thank you very much for using Q-Chem.  Have a nice day.  *
