 Q-Chem 5.1, Q-Chem, Inc., Pleasanton, CA (2018)
 Q-Chem 5.1.1 for Intel X86 EM64T Linux

User input:
--------------------------------------------------------------
$molecule
2 5
O          1.02812        0.64152        1.64621
O          1.54854        0.99750        2.85653
Fe         0.36161        0.20159        0.22242
N          2.58992        0.38600       -1.06362
C          3.38761       -0.73499       -0.69452
N          2.68765       -1.90507       -0.66591
C          1.25736       -1.63284       -0.97925
C          1.35517       -0.17519       -1.28555
H          0.89269       -2.27281       -1.81134
H          0.52379        0.45136       -1.65646
H          4.46890       -0.66673       -0.45228
H          3.11181       -2.85132       -0.47690
H         -1.84541       -4.43067       -0.83175
C         -1.31568       -3.59359       -0.35347
H         -0.80137       -4.55364        1.56374
N         -0.76217       -3.70176        0.94663
C         -1.03492       -2.31553       -0.78251
C         -0.16172       -2.50864        1.28078
H         -1.29759       -1.83933       -1.73443
N         -0.30666       -1.61172        0.23567
H          0.35050       -2.32140        2.23912
H         -1.71739        1.32429       -2.27222
C         -2.15171        1.10397       -1.28838
H         -1.13277        2.42018        0.02198
N         -1.35089        1.37999       -0.04110
C         -3.36000        0.61851       -0.92035
C         -2.38996        1.05086        1.03281
H         -4.19330        0.29273       -1.56404
N         -3.52768        0.57624        0.55508
H         -2.13309        1.22829        2.09255
$end

$rem
BASIS = VDZ
METHOD  = B3LYP
JOBTYPE = OPT
MAX_SCF_CYCLES = 500
SCF_ALGORITHM = DIIS_GDM
GEOM_OPT_MAX_CYCLES = 100
$end
--------------------------------------------------------------

   74   -2090.9277267711      2.38e-09  Convergence criterion met
 Total energy in the final basis set =    -2090.9277267711
   58   -2090.9754551052      6.98e-09  Convergence criterion met
 Total energy in the final basis set =    -2090.9754551052
   57   -2091.0069816438      7.52e-09  Convergence criterion met
 Total energy in the final basis set =    -2091.0069816438
   57   -2091.0287042647      8.89e-09  Convergence criterion met
 Total energy in the final basis set =    -2091.0287042647
   54   -2091.0444391768      5.81e-09  Convergence criterion met
 Total energy in the final basis set =    -2091.0444391768
   52   -2091.0568217854      9.65e-09  Convergence criterion met
 Total energy in the final basis set =    -2091.0568217854
   57   -2091.0669806826      8.19e-09  Convergence criterion met
 Total energy in the final basis set =    -2091.0669806826
   57   -2091.0755222156      8.08e-09  Convergence criterion met
   47   -2091.1756739559      8.28e-09  Convergence criterion met
 Total energy in the final basis set =    -2091.1756739559
   41   -2091.1756772546      6.72e-09  Convergence criterion met
 Total energy in the final basis set =    -2091.1756772546
   42   -2091.1756820344      9.18e-09  Convergence criterion met
 Total energy in the final basis set =    -2091.1756820344
   44   -2091.1756848390      9.29e-09  Convergence criterion met
 Total energy in the final basis set =    -2091.1756848390
   42   -2091.1756868840      9.52e-09  Convergence criterion met
 Total energy in the final basis set =    -2091.1756868840
   42   -2091.1756879982      7.41e-09  Convergence criterion met
 Total energy in the final basis set =    -2091.1756879982

             Standard Nuclear Orientation (Angstroms)
    I     Atom           X                Y                Z
 ----------------------------------------------------------------
    1      O       1.8024045420    -0.3540785706     1.5449646192
    2      O       2.6477624616    -1.2129287315     1.9307049721
    3      Fe      0.4671015415    -0.2476931575     0.1327310220
    4      N       1.7576967879     0.6373182592    -1.0433744818
    5      C       2.8473697766     1.3605740175    -0.6876760631
    6      N       3.5099788546     1.7396388496    -1.8055326096
    7      C       2.8474553842     1.2497185659    -2.9280154066
    8      C       1.7527518406     0.5658015265    -2.4516157583
    9      H       3.2026023370     1.4168656871    -3.9424193548
   10      H       1.0015678567     0.0201788421    -3.0177940847
   11      H       3.1552915561     1.6167621731     0.3238148378
   12      H       4.3654565690     2.2965962687    -1.8235064065
   13      H      -2.3137677644    -4.4322213094     1.4034214348
   14      C      -1.7785129731    -3.4867046123     1.4468738268
   15      H      -1.9409771722    -3.0636121656     3.5486486481
   16      N      -1.5922824367    -2.7799299405     2.6324875632
   17      C      -1.1607976690    -2.7482250083     0.4637703990
   18      C      -0.8792254258    -1.6577472420     2.3808214324
   19      H      -1.0753655118    -2.9679250547    -0.5968892706
   20      N      -0.5984975314    -1.6015523177     1.0561114684
   21      H      -0.5975754829    -0.9300815981     3.1393550800
   22      H      -1.4929658849    -0.4960368400    -2.5733937542
   23      C      -1.8916822300    -0.1303705871    -1.6288424274
   24      H      -0.6757336467     1.5530844409    -1.2271523752
   25      N      -1.1142929717     0.7454379966    -0.7546439995
   26      C      -3.1110101190    -0.2972310304    -1.0468893277
   27      C      -2.0796146614     1.0979325928     0.3023000018
   28      H      -3.9579729956    -0.8887813309    -1.3896009623
   29      N      -3.1993109402     0.4662299122     0.1522373282
   30      H      -1.8295363558     1.8170710870     1.0838772303
 ----------------------------------------------------------------

   41   -2091.1756885314      9.82e-09  Convergence criterion met
 Total energy in the final basis set =    -2091.1756885314
 Final energy is   -2091.17568853138
 **  OPTIMIZATION CONVERGED  **

                    Orbital Energies (a.u.)
 --------------------------------------------------------------

 Alpha MOs
 -- Occupied --
******* -30.382 -26.255 -26.251 -26.239 -19.586 -19.582 -14.688
-14.675 -14.666 -14.655 -14.647 -14.599 -10.552 -10.544 -10.531
-10.502 -10.501 -10.499 -10.492 -10.489 -10.484  -3.825  -2.609
 -2.608  -2.581  -1.567  -1.315  -1.306  -1.290  -1.171  -1.162
 -1.158  -1.132  -1.039  -1.030  -1.023  -0.912  -0.903  -0.891
 -0.885  -0.882  -0.864  -0.857  -0.854  -0.844  -0.833  -0.831
 -0.827  -0.764  -0.748  -0.739  -0.733  -0.725  -0.723  -0.719
 -0.717  -0.714  -0.708  -0.708  -0.694  -0.686  -0.666  -0.640
 -0.636  -0.631  -0.628  -0.602  -0.595  -0.592  -0.585  -0.574
 -0.531  -0.528  -0.526  -0.513

 Beta MOs
 -- Occupied --
******* -30.340 -26.220 -26.218 -26.201 -19.559 -19.554 -14.689
-14.674 -14.666 -14.655 -14.647 -14.599 -10.552 -10.544 -10.531
-10.502 -10.501 -10.499 -10.492 -10.489 -10.484  -3.719  -2.505
 -2.496  -2.461  -1.511  -1.315  -1.306  -1.290  -1.171  -1.161
 -1.159  -1.059  -1.038  -1.030  -1.022  -0.912  -0.903  -0.890
 -0.885  -0.881  -0.863  -0.852  -0.844  -0.831  -0.806  -0.763
 -0.753  -0.749  -0.745  -0.735  -0.730  -0.724  -0.720  -0.718
 -0.716  -0.712  -0.707  -0.706  -0.686  -0.680  -0.643  -0.611
 -0.601  -0.592  -0.549  -0.542  -0.532  -0.528  -0.526  -0.513

          Ground-State Mulliken Net Atomic Charges

     Atom                 Charge (a.u.)    Spin (a.u.)
  --------------------------------------------------------
      1 O                    -0.183278       0.709436
      2 O                     0.143072       1.061592
      3 Fe                    1.231952       2.237096
      4 N                    -0.602557      -0.020091
      5 C                     0.265348       0.018876
      6 N                    -0.333411       0.006182
      7 C                     0.131727       0.000419
      8 C                     0.027378       0.002429
      9 H                     0.171271      -0.000246
     10 H                     0.135315       0.000283
     11 H                     0.173613      -0.001459
     12 H                     0.312602      -0.000285
     13 H                     0.166789      -0.000272
     14 C                     0.118713       0.001295
     15 H                     0.309953      -0.000278
     16 N                    -0.333898       0.005321
     17 C                     0.068714       0.001010
     18 C                     0.261357       0.014892
     19 H                     0.133517       0.000414
     20 N                    -0.601033      -0.020614
     21 H                     0.167257      -0.000737
     22 H                     0.157981       0.000533
     23 C                     0.020394      -0.007253
     24 H                     0.324123       0.002267
     25 N                    -0.647387      -0.028120
     26 C                     0.067313       0.019689
     27 C                     0.133763       0.013749
     28 H                     0.162717      -0.000441
     29 N                    -0.157173      -0.015379
     30 H                     0.173867      -0.000305
  --------------------------------------------------------
  Sum of atomic charges =     2.000000

                    Cartesian Multipole Moments
 -----------------------------------------------------------------
    Charge (ESU x 10^10)
                 9.6064
    Dipole Moment (Debye)
         X       4.6383      Y      -2.5706      Z      -0.8318
       Tot       5.3679
    Quadrupole Moments (Debye-Ang)
        XX     -53.9559     XY      36.6399     YY     -63.6009
        XZ     -21.2342     YZ     -26.4653     ZZ     -54.7926

 Total job time:  12182.57s(wall), 97290.37s(cpu)
        *  Thank you very much for using Q-Chem.  Have a nice day.  *
