 Q-Chem 5.1, Q-Chem, Inc., Pleasanton, CA (2018)
 Q-Chem 5.1.1 for Intel X86 EM64T Linux

User input:
--------------------------------------------------------------
$molecule
0 1
C         -0.44227        1.98209       -0.59834
C         -0.74587        1.21450        0.45084
C          0.29197        0.42699        1.14719
C         -0.01711       -0.34211        2.19968
C          1.02120       -1.13089        2.89805
C          0.70181       -1.92264        3.93730
H         -1.21989        2.55271       -1.09572
H          0.57599        2.04965       -0.96995
H         -1.77691        1.17409        0.79192
H          1.32031        0.47599        0.79621
H         -1.04629       -0.38864        2.54847
H          2.03355       -1.08428        2.51649
C          1.65276       -2.81250        4.69851
H         -0.35235       -1.99055        4.18415
C          2.97474       -2.49794        4.95486
C          3.89352       -3.43617        5.72288
C          3.15664       -4.48178        6.55212
H          4.53080       -2.87026        6.43718
H          4.56891       -3.91841        4.98301
C          2.12938       -5.15474        5.67040
H          2.66196       -4.01114        7.42608
H          3.89211       -5.22010        6.93851
C          1.04005       -4.14673        5.20452
H          1.65834       -6.01322        6.19831
H          2.67863       -5.56901        4.79360
C          3.65166       -1.18932        4.59459
H          2.99033       -0.38780        4.23582
H          4.47006       -1.37244        3.86725
H          4.09349       -0.75142        5.51448
C          0.05808       -3.84392        6.36256
H          0.56143       -3.31711        7.19818
H         -0.38229       -4.78464        6.75779
H         -0.78315       -3.20252        6.02998
C          0.25937       -4.85971        4.07238
H          0.92838       -5.07328        3.21072
H         -0.59022       -4.24949        3.70250
H         -0.16436       -5.82234        4.43321

$end

$rem
BASIS = 6-31G
METHOD  = BLYP
JOBTYPE = OPT
$end
--------------------------------------------------------------

   16    -584.3174044771      1.63e-09  Convergence criterion met
 Total energy in the final basis set =     -584.3174044771
   12    -584.3285284717      2.98e-09  Convergence criterion met
 Total energy in the final basis set =     -584.3285284717
   12    -584.3290749904      7.51e-09  Convergence criterion met
 Total energy in the final basis set =     -584.3290749904
   12    -584.3302047533      7.14e-09  Convergence criterion met
 Total energy in the final basis set =     -584.3302047533
   12    -584.3304674768      3.68e-09  Convergence criterion met
 Total energy in the final basis set =     -584.3304674768
   10    -584.3305369637      6.16e-09  Convergence criterion met
 Total energy in the final basis set =     -584.3305369637
   10    -584.3305645784      5.32e-09  Convergence criterion met
 Total energy in the final basis set =     -584.3305645784
   10    -584.3305782447      5.63e-09  Convergence criterion met
 Total energy in the final basis set =     -584.3305782447
   10    -584.3305877372      7.64e-09  Convergence criterion met
 Total energy in the final basis set =     -584.3305877372
   10    -584.3305910264      7.12e-09  Convergence criterion met
 Total energy in the final basis set =     -584.3305910264
    9    -584.3305935041      9.58e-09  Convergence criterion met
 Total energy in the final basis set =     -584.3305935041

             Standard Nuclear Orientation (Angstroms)
    I     Atom           X                Y                Z
 ----------------------------------------------------------------
    1      C       6.4822691278    -0.1104558268    -0.3682922308
    2      C       5.2993844131     0.4022281151     0.0681990280
    3      C       3.9915622224    -0.1689957447    -0.2094301869
    4      C       2.8042898844     0.3581525812     0.2373716299
    5      C       1.4954857812    -0.1967332974    -0.0455444698
    6      C       0.3195454320     0.3654297444     0.3881718426
    7      H       7.4379904235     0.3617497685    -0.1306572806
    8      H       6.5253010484    -1.0192800591    -0.9770604271
    9      H       5.3089375914     1.3169670486     0.6762711306
   10      H       3.9700810202    -1.0821289319    -0.8195958155
   11      H       2.8320739527     1.2706213406     0.8494603787
   12      H       1.4730061496    -1.0934066512    -0.6739399091
   13      C      -1.0671292406    -0.0753025168     0.1333049976
   14      H       0.4133176199     1.3075222818     0.9458718675
   15      C      -1.4631041003    -1.3952298983     0.1203080312
   16      C      -2.9029954245    -1.8262839747    -0.1788872121
   17      C      -3.9475997830    -0.6951767653    -0.0405224986
   18      H      -3.1697316377    -2.6740833407     0.4812013828
   19      H      -2.9391729283    -2.2384917587    -1.2114219214
   20      C      -3.4155120680     0.5892781138    -0.7096147129
   21      H      -4.1541083975    -0.5087946584     1.0296325249
   22      H      -4.9056226830    -1.0033638296    -0.4971433594
   23      C      -2.0847244201     1.1030068938    -0.0666759645
   24      H      -4.1683435121     1.3983954326    -0.6644059106
   25      H      -3.2349413924     0.3834411467    -1.7831066320
   26      C      -0.5315579100    -2.5698115799     0.4026193930
   27      H       0.3692934925    -2.2706417969     0.9573582628
   28      H      -0.1977097046    -3.0649887849    -0.5314553113
   29      H      -1.0617641473    -3.3419680772     0.9894369551
   30      C      -2.3893746045     1.7781616945     1.3151915146
   31      H      -2.8589357826     1.0700698686     2.0171918846
   32      H      -3.0726552112     2.6357872643     1.1769778699
   33      H      -1.4696992330     2.1595878207     1.7910563435
   34      C      -1.4937041114     2.1881648241    -1.0288245510
   35      H      -1.2175075443     1.7444632489    -2.0006646346
   36      H      -0.5966146250     2.6727108011    -0.6106323816
   37      H      -2.2478402308     2.9748385643    -1.2104382198
 ----------------------------------------------------------------

    9    -584.3305941609      2.95e-09  Convergence criterion met
 Total energy in the final basis set =     -584.3305941609
 Final energy is   -584.330594160901
 **  OPTIMIZATION CONVERGED  **

                    Orbital Energies (a.u.)
 --------------------------------------------------------------

 Alpha MOs
 -- Occupied --
 -9.933  -9.924  -9.922  -9.921  -9.919  -9.919  -9.918  -9.918
 -9.916  -9.912  -9.910  -9.909  -9.907  -9.904  -9.901  -0.755
 -0.725  -0.697  -0.695  -0.668  -0.635  -0.603  -0.601  -0.594
 -0.549  -0.517  -0.500  -0.488  -0.479  -0.435  -0.415  -0.405
 -0.396  -0.385  -0.379  -0.367  -0.364  -0.352  -0.344  -0.343
 -0.339  -0.332  -0.324  -0.318  -0.309  -0.299  -0.296  -0.292
 -0.290  -0.285  -0.269  -0.258  -0.248  -0.240  -0.199  -0.157

          Ground-State Mulliken Net Atomic Charges

     Atom                 Charge (a.u.)
  ----------------------------------------
      1 C                    -0.284919
      2 C                    -0.037495
      3 C                    -0.093533
      4 C                    -0.095263
      5 C                    -0.069831
      6 C                    -0.164760
      7 H                     0.106227
      8 H                     0.105996
      9 H                     0.092092
     10 H                     0.089026
     11 H                     0.089618
     12 H                     0.099281
     13 C                     0.092064
     14 H                     0.096193
     15 C                     0.093611
     16 C                    -0.274651
     17 C                    -0.217397
     18 H                     0.110874
     19 H                     0.122608
     20 C                    -0.208002
     21 H                     0.114991
     22 H                     0.101508
     23 C                     0.010808
     24 H                     0.098061
     25 H                     0.105905
     26 C                    -0.441166
     27 H                     0.142483
     28 H                     0.130438
     29 H                     0.117815
     30 C                    -0.368814
     31 H                     0.122055
     32 H                     0.113825
     33 H                     0.117981
     34 C                    -0.360899
     35 H                     0.119175
     36 H                     0.114074
     37 H                     0.110021
  ----------------------------------------
  Sum of atomic charges =    -0.000000

                    Cartesian Multipole Moments
 -----------------------------------------------------------------
    Charge (ESU x 10^10)
                -0.0000
    Dipole Moment (Debye)
         X      -1.0412      Y      -0.2013      Z      -0.0382
       Tot       1.0611
    Quadrupole Moments (Debye-Ang)
        XX     -92.8606     XY       0.8833     YY     -91.0910
        XZ       0.2794     YZ       3.2321     ZZ     -95.8595

 Total job time:  406.17s(wall), 811.19s(cpu)
        *  Thank you very much for using Q-Chem.  Have a nice day.  *
