 Q-Chem 5.1, Q-Chem, Inc., Pleasanton, CA (2018)
 Q-Chem 5.1.1 for Intel X86 EM64T Linux

User input:
--------------------------------------------------------------
$molecule
0 1
C         -0.23771        4.21960       -1.24078
C         -0.57035        3.13402       -0.52995
C          0.43344        2.42588        0.29139
C          0.10006        1.34157        1.00416
C          1.10395        0.63215        1.82689
C          0.77023       -0.47039        2.52115
H         -1.59319        2.76491       -0.55449
H          1.45652        2.79437        0.31458
H          2.12127        1.00281        1.81396
C          1.70604       -1.31165        3.35323
H         -0.24451       -0.83134        2.39160
C          2.76541       -0.80501        4.08358
C          3.68373       -1.70070        4.90138
C          3.09221       -3.06992        5.21635
H          3.92094       -1.23485        5.88286
H          4.63804       -1.79895        4.33945
C          2.57102       -3.67292        3.93172
H          2.27258       -2.98131        5.95822
H          3.88292       -3.71081        5.66287
C          1.39700       -2.83360        3.35123
H          2.24859       -4.72541        4.09251
H          3.42538       -3.69625        3.21644
C          3.10298        0.66577        4.23643
H          2.35447        1.37401        3.85359
H          4.09892        0.87523        3.79306
H          3.14389        0.91155        5.31860
C          0.10320       -3.08674        4.16307
H          0.19627       -2.72024        5.20526
H         -0.13251       -4.17234        4.19459
H         -0.77088       -2.57446        3.71228
C          1.17986       -3.35073        1.90727
H          2.08236       -3.16469        1.28557
H          0.31687       -2.85905        1.41282
H          0.97484       -4.44360        1.90800
C         -1.24166        4.92759       -2.06210
C         -0.90985        6.01465       -2.77106
C         -1.91403        6.72247       -3.59226
C         -1.58310        7.81106       -4.29928
H         -2.93581        6.35062       -3.61975
H          0.11232        6.38550       -2.74469
H          0.78499        4.58908       -1.21590
C         -2.58755        8.51871       -5.12031
C         -2.25752        9.60884       -5.82537
C         -3.26221       10.31630       -6.64626
C         -2.93305       11.40793       -7.34941
H         -1.91251       11.78286       -7.31852
H         -4.28288        9.94165       -6.67673
C         -3.93800       12.11522       -8.17024
C         -3.60961       13.20891       -8.87205
H         -4.95777       11.73834       -8.20139
C         -4.61486       13.92137       -9.69681
H         -0.56149        8.18331       -4.27141
H         -3.60877        8.14545       -5.14931
H         -2.58790       13.58027       -8.83559
H         -1.23645        9.98249       -5.79602
H         -2.26398        4.55712       -2.08810
H         -0.92388        0.97554        0.98010
C         -4.26894       15.02129      -10.39721
H         -5.59891       13.50167       -9.69032
C         -5.10894       15.91092      -11.30474
H         -3.23065       15.28780      -10.28275
C         -6.46292       15.75632      -11.56364
C         -7.18820       16.79610      -12.42085
C         -6.82066       18.15362      -11.84991
H         -8.29038       16.66750      -12.37695
H         -6.93442       16.75109      -13.49094
C         -4.40491       17.11405      -12.00609
C         -7.33708       14.67522      -10.97825
H         -8.39383       14.76337      -11.30414
H         -7.34897       14.75390       -9.87153
H         -6.99342       13.68091      -11.33089
C         -4.12020       16.69980      -13.47838
H         -4.99777       16.39881      -14.06669
H         -3.43212       15.82649      -13.49711
H         -3.62751       17.52793      -14.03290
C         -3.01943       17.50738      -11.42693
H         -3.10683       17.76698      -10.34982
H         -2.61362       18.39580      -11.95913
H         -2.26206       16.70483      -11.54991
C         -5.30100       18.40459      -11.93950
H         -7.11601       18.11998      -10.77543
H         -7.37861       18.99550      -12.31299
H         -5.06424       19.03376      -11.05211
H         -5.06037       19.03333      -12.82488
$end

$rem
BASIS = 6-31G
METHOD  = BLYP
JOBTYPE = OPT
$end
--------------------------------------------------------------

   16   -1399.5099047915      8.06e-09  Convergence criterion met
 Total energy in the final basis set =    -1399.5099047915
   13   -1399.5411538220      3.84e-09  Convergence criterion met
 Total energy in the final basis set =    -1399.5411538220
   13   -1399.5531737644      4.71e-09  Convergence criterion met
 Total energy in the final basis set =    -1399.5531737644
   13   -1399.5549189356      3.53e-09  Convergence criterion met
 Total energy in the final basis set =    -1399.5549189356
   13   -1399.5558744818      8.57e-09  Convergence criterion met
 Total energy in the final basis set =    -1399.5558744818
   14   -1399.5557606097      5.83e-09  Convergence criterion met
 Total energy in the final basis set =    -1399.5557606097
   12   -1399.5562119696      7.09e-09  Convergence criterion met
 Total energy in the final basis set =    -1399.5562119696
   13   -1399.5563685567      5.81e-09  Convergence criterion met
   13   -1399.5668311592      4.12e-09  Convergence criterion met
 Total energy in the final basis set =    -1399.5668311592
   11   -1399.5668548035      6.06e-09  Convergence criterion met
 Total energy in the final basis set =    -1399.5668548035
   11   -1399.5668794280      6.44e-09  Convergence criterion met
 Total energy in the final basis set =    -1399.5668794280
   12   -1399.5668958136      3.70e-09  Convergence criterion met
 Total energy in the final basis set =    -1399.5668958136
   11   -1399.5669057883      4.66e-09  Convergence criterion met
 Total energy in the final basis set =    -1399.5669057883
   10   -1399.5669112265      9.34e-09  Convergence criterion met
 Total energy in the final basis set =    -1399.5669112265

             Standard Nuclear Orientation (Angstroms)
    I     Atom           X                Y                Z
 ----------------------------------------------------------------
    1      C       4.3571766106    -0.1139143807     0.0801006974
    2      C       5.5762882293     0.4266964637    -0.3036807057
    3      C       6.8511405336    -0.1632688649    -0.0196905261
    4      C       8.0720081800     0.3680998891    -0.3980978026
    5      C       9.3491224684    -0.2224880041    -0.0856257110
    6      C      10.5607658334     0.3328944426    -0.4384416239
    7      H       5.5741815079     1.3737260391    -0.8604381132
    8      H       6.8484551696    -1.1061409929     0.5445894652
    9      H       9.3264164898    -1.1441839020     0.5052124971
   10      C      11.9200304926    -0.1460535035    -0.1326525766
   11      H      10.5117071105     1.2999422388    -0.9568563594
   12      C      12.2830899324    -1.4777788344    -0.1130468774
   13      C      13.6946070869    -1.9478822718     0.2536919975
   14      C      14.7740501546    -0.8448300994     0.1709410525
   15      H      13.9706652949    -2.8011461979    -0.3952691488
   16      H      13.6692663358    -2.3632878652     1.2854613016
   17      C      14.2451895710     0.4499018425     0.8213299027
   18      H      15.0334144299    -0.6589162403    -0.8875351362
   19      H      15.7013916783    -1.1803182273     0.6694847613
   20      C      12.9622427100     1.0031138886     0.1183595007
   21      H      15.0202049290     1.2392810442     0.8168214615
   22      H      14.0070975528     0.2451578587     1.8837158866
   23      C      11.3372470807    -2.6253330438    -0.4526183696
   24      H      10.4862395329    -2.3015252153    -1.0694951613
   25      H      10.9235943364    -3.1049031452     0.4574343687
   26      H      11.8821158045    -3.4167374129    -0.9985512098
   27      C      13.3497397024     1.6686693306    -1.2470814374
   28      H      13.8409072630     0.9495073420    -1.9229243424
   29      H      14.0420455416     2.5129774366    -1.0757205332
   30      H      12.4621941965     2.0644236158    -1.7696889442
   31      C      12.3608335102     2.1043693201     1.0556146705
   32      H      11.9952732147     1.6633270036     1.9987508361
   33      H      11.5209674661     2.6415467501     0.5857892485
   34      H      13.1391206717     2.8486813560     1.3024603611
   35      C       3.0811634106     0.4734856293    -0.1895876952
   36      C       1.8645466196    -0.0753380518     0.1961392994
   37      C       0.5857742005     0.5052955997    -0.0692074109
   38      C      -0.6275226180    -0.0539065605     0.3137629762
   39      H       0.5696971788     1.4575647637    -0.6166992162
   40      H       1.8772332568    -1.0272759998     0.7446077418
   41      H       4.3631422697    -1.0627501938     0.6340972999
   42      C      -1.9107761682     0.5146393908     0.0440193686
   43      C      -3.1194687640    -0.0579285260     0.4202253598
   44      C      -4.4090243548     0.4926876199     0.1380692814
   45      C      -5.6112172581    -0.0966977609     0.5035248637
   46      H      -5.5754530995    -1.0453910261     1.0566081112
   47      H      -4.4405545807     1.4418011894    -0.4142396065
   48      C      -6.9090340226     0.4300955877     0.2011777987
   49      C      -8.1019679642    -0.1779544661     0.5539075500
   50      H      -6.9489939443     1.3745475307    -0.3586267873
   51      C      -9.4120010601     0.3200080735     0.2209002395
   52      H      -0.6079857096    -1.0067703188     0.8604037743
   53      H      -1.9340889366     1.4662813614    -0.5043024331
   54      H      -8.0581155798    -1.1208618829     1.1167165815
   55      H      -3.0922680789    -1.0097096793     0.9684394304
   56      H       3.0717992173     1.4243280683    -0.7397246634
   57      H       8.0806657209     1.3078049826    -0.9674134171
   58      C     -10.5791326970    -0.3408312102     0.5456058376
   59      H      -9.4502332104     1.2484649623    -0.3586643420
   60      C     -11.9669190188     0.0167582090     0.2067822908
   61      H     -10.4487085053    -1.3029288649     1.0557350822
   62      C     -12.4221152063     1.3160449316     0.1113920414
   63      C     -13.8159832616     1.6701060663    -0.4087923366
   64      C     -14.5145832972     0.5020224108    -1.1380318191
   65      H     -13.7300539354     2.5502054306    -1.0772630719
   66      H     -14.4480019296     2.0108202219     0.4403962417
   67      C     -12.9061916944    -1.2150791255    -0.0508819903
   68      C     -11.6212311468     2.5401490173     0.5396520941
   69      H     -12.2925199957     3.2693210981     1.0317290609
   70      H     -11.1738203663     3.0686192473    -0.3257354481
   71      H     -10.8089545833     2.2933548382     1.2385910954
   72      C     -12.9031833107    -2.1844241697     1.1813966192
   73      H     -13.1458444624    -1.6420903983     2.1113385016
   74      H     -11.9360759145    -2.6938807758     1.3197012539
   75      H     -13.6667638977    -2.9687091386     1.0342818048
   76      C     -12.3951517220    -1.9975444713    -1.3078088918
   77      H     -12.4118771332    -1.3615084772    -2.2090622697
   78      H     -13.0257360044    -2.8849040563    -1.4995764104
   79      H     -11.3562359667    -2.3397167344    -1.1643349602
   80      C     -14.3925774377    -0.7687014232    -0.2720767467
   81      H     -14.0430443954     0.3387524670    -2.1250376709
   82      H     -15.5755115557     0.7454317571    -1.3275377891
   83      H     -14.9531454148    -1.6112296203    -0.7171419180
   84      H     -14.8563425278    -0.5665797901     0.7137347927
 ----------------------------------------------------------------

   11   -1399.5669121878      4.45e-09  Convergence criterion met
 Total energy in the final basis set =    -1399.5669121878
 Final energy is   -1399.56691218780
 **  OPTIMIZATION CONVERGED  **

                    Orbital Energies (a.u.)
 --------------------------------------------------------------

 Alpha MOs
 -- Occupied --
 -9.934  -9.933  -9.925  -9.925  -9.921  -9.921  -9.921  -9.921
 -9.921  -9.921  -9.921  -9.921  -9.921  -9.921  -9.921  -9.920
 -9.920  -9.920  -9.919  -9.919  -9.919  -9.919  -9.918  -9.918
 -9.917  -9.916  -9.912  -9.912  -9.909  -9.909  -9.909  -9.908
 -9.905  -9.904  -9.901  -9.901  -0.756  -0.755  -0.737  -0.732
 -0.724  -0.714  -0.702  -0.697  -0.697  -0.689  -0.678  -0.666
 -0.652  -0.636  -0.621  -0.606  -0.603  -0.603  -0.598  -0.595
 -0.592  -0.569  -0.548  -0.533  -0.520  -0.508  -0.502  -0.498
 -0.494  -0.492  -0.486  -0.482  -0.479  -0.475  -0.436  -0.434
 -0.421  -0.420  -0.414  -0.407  -0.407  -0.395  -0.394  -0.388
 -0.385  -0.383  -0.374  -0.371  -0.367  -0.365  -0.364  -0.363
 -0.357  -0.352  -0.348  -0.346  -0.344  -0.342  -0.340  -0.337
 -0.334  -0.332  -0.326  -0.325  -0.318  -0.317  -0.315  -0.314
 -0.309  -0.305  -0.301  -0.300  -0.299  -0.299  -0.298  -0.297
 -0.294  -0.293  -0.293  -0.289  -0.289  -0.283  -0.272  -0.269
 -0.267  -0.259  -0.257  -0.250  -0.248  -0.245  -0.231  -0.213
 -0.196  -0.179  -0.158  -0.134

          Ground-State Mulliken Net Atomic Charges

     Atom                 Charge (a.u.)
  ----------------------------------------
      1 C                    -0.095309
      2 C                    -0.092028
      3 C                    -0.096615
      4 C                    -0.095422
      5 C                    -0.072166
      6 C                    -0.164534
      7 H                     0.090188
      8 H                     0.089250
      9 H                     0.099346
     10 C                     0.094091
     11 H                     0.095638
     12 C                     0.092723
     13 C                    -0.274880
     14 C                    -0.217080
     15 H                     0.110977
     16 H                     0.123123
     17 C                    -0.208360
     18 H                     0.115230
     19 H                     0.101596
     20 C                     0.010950
     21 H                     0.098264
     22 H                     0.106135
     23 C                    -0.441882
     24 H                     0.143205
     25 H                     0.131173
     26 H                     0.117946
     27 C                    -0.368557
     28 H                     0.122003
     29 H                     0.113813
     30 H                     0.118185
     31 C                    -0.361707
     32 H                     0.119874
     33 H                     0.113637
     34 H                     0.110338
     35 C                    -0.092766
     36 C                    -0.094970
     37 C                    -0.092781
     38 C                    -0.094952
     39 H                     0.090543
     40 H                     0.090350
     41 H                     0.090048
     42 C                    -0.092749
     43 C                    -0.095090
     44 C                    -0.092799
     45 C                    -0.094845
     46 H                     0.090140
     47 H                     0.090228
     48 C                    -0.093366
     49 C                    -0.098868
     50 H                     0.089559
     51 C                    -0.066861
     52 H                     0.090454
     53 H                     0.090472
     54 H                     0.089509
     55 H                     0.090413
     56 H                     0.090480
     57 H                     0.089250
     58 C                    -0.167379
     59 H                     0.098390
     60 C                     0.102655
     61 H                     0.092285
     62 C                     0.091780
     63 C                    -0.280161
     64 C                    -0.217038
     65 H                     0.116474
     66 H                     0.121004
     67 C                     0.011537
     68 C                    -0.443170
     69 H                     0.120998
     70 H                     0.130374
     71 H                     0.141877
     72 C                    -0.370610
     73 H                     0.120252
     74 H                     0.117654
     75 H                     0.115563
     76 C                    -0.364408
     77 H                     0.120392
     78 H                     0.109976
     79 H                     0.120872
     80 C                    -0.211813
     81 H                     0.115235
     82 H                     0.101422
     83 H                     0.099821
     84 H                     0.105476
  ----------------------------------------
  Sum of atomic charges =    -0.000000

                    Cartesian Multipole Moments
 -----------------------------------------------------------------
    Charge (ESU x 10^10)
                -0.0000
    Dipole Moment (Debye)
         X      -0.1547      Y      -0.0828      Z      -0.0460
       Tot       0.1814
    Quadrupole Moments (Debye-Ang)
        XX    -166.3454     XY      -6.7537     YY    -213.3699
        XZ       3.0792     YZ      -8.6422     ZZ    -227.5906

 Total job time:  3547.49s(wall), 14059.42s(cpu)
        *  Thank you very much for using Q-Chem.  Have a nice day.  *
