 Q-Chem 5.1, Q-Chem, Inc., Pleasanton, CA (2018)
 Q-Chem 5.1.1 for Intel X86 EM64T Linux

User input:
--------------------------------------------------------------
$molecule
0 1
C          0.43184        2.07369       -0.81059
C         -0.00143        1.27130        0.17085
C          0.94723        0.47217        0.97444
C          0.51586       -0.31817        1.96673
C          1.46532       -1.11614        2.77340
C          1.02651       -1.91556        3.76236
H         -1.06590        1.20563        0.38444
H          2.01084        0.53213        0.75501
H          2.51444       -1.06753        2.51097
C          1.87811       -2.81479        4.62496
H         -0.04934       -1.98022        3.88490
C          3.16734       -2.51566        5.02682
C          3.98433       -3.46467        5.89087
C          3.14726       -4.49741        6.63657
H          4.54922       -2.90623        6.66910
H          4.72871       -3.95861        5.22899
C          2.21507       -5.16045        5.64826
H          2.56586       -4.01733        7.44991
H          3.82606       -5.24383        7.10291
C          1.19707       -4.14065        5.06220
H          1.67756       -6.01095        6.12294
H          2.85239       -5.58509        4.83858
C          3.89580       -1.21522        4.74677
H          3.28660       -0.40322        4.32524
H          4.78550       -1.40668        4.11102
H          4.24169       -0.78570        5.71063
C          0.09728       -3.82190        6.10444
H          0.51222       -3.29842        6.98932
H         -0.39579       -4.75565        6.45090
H         -0.69410       -3.17123        5.68019
C          0.53730       -4.84855        3.85260
H          1.29458       -5.07346        3.07063
H         -0.25908       -4.23025        3.38967
H          0.06468       -5.80467        4.16710
C         -0.51618        2.87475       -1.61296
C         -0.08158        3.68592       -2.58646
C         -1.02940        4.48754       -3.38745
C         -0.60015        5.30155       -4.35463
H         -2.09635        4.41984       -3.19237
H          0.98370        3.76010       -2.79324
H         -1.31330        5.88189       -4.93113
H          0.45780        5.39818       -4.58027
H          1.49658        2.14159       -1.02217
C         -0.78125       -0.40325        2.42181
H         -1.41700        0.19232        1.80050
H         -0.83006       -0.04540        3.42902
H         -1.10444       -1.42276        2.38947
C         -2.09591        2.81963       -1.09598
H         -2.70190        3.42670       -1.73561
H         -2.15602        3.18767       -0.09307
H         -2.44616        1.80904       -1.12663
$end

$rem
BASIS = 6-31G
METHOD  = BLYP
JOBTYPE = OPT
$end
--------------------------------------------------------------

   16    -817.5399440759      8.92e-09  Convergence criterion met
 Total energy in the final basis set =     -817.5399440759
   13    -817.5795744726      7.94e-09  Convergence criterion met
 Total energy in the final basis set =     -817.5795744726
   13    -817.5935081068      4.66e-09  Convergence criterion met
 Total energy in the final basis set =     -817.5935081068
   13    -817.5962345100      4.47e-09  Convergence criterion met
 Total energy in the final basis set =     -817.5962345100
   12    -817.5963982294      7.95e-09  Convergence criterion met
 Total energy in the final basis set =     -817.5963982294
   12    -817.5965956996      1.69e-09  Convergence criterion met
 Total energy in the final basis set =     -817.5965956996
   11    -817.5966666948      9.32e-09  Convergence criterion met
 Total energy in the final basis set =     -817.5966666948
   11    -817.5967094028      9.46e-09  Convergence criterion met
    9    -817.5967940907      8.64e-09  Convergence criterion met
 Total energy in the final basis set =     -817.5967940907
    9    -817.5967955922      7.06e-09  Convergence criterion met
 Total energy in the final basis set =     -817.5967955922
    9    -817.5967979076      6.63e-09  Convergence criterion met
 Total energy in the final basis set =     -817.5967979076
   10    -817.5968014735      6.38e-09  Convergence criterion met
 Total energy in the final basis set =     -817.5968014735
   10    -817.5968048129      5.25e-09  Convergence criterion met
 Total energy in the final basis set =     -817.5968048129
    9    -817.5968058606      4.77e-09  Convergence criterion met
 Total energy in the final basis set =     -817.5968058606

             Standard Nuclear Orientation (Angstroms)
    I     Atom           X                Y                Z
 ----------------------------------------------------------------
    1      C       4.0813911272    -0.2533170003    -0.0804055180
    2      C       2.9912654744     0.4585517410     0.3805720580
    3      C       1.6349211187    -0.0042055398     0.2363585711
    4      C       0.4612810089     0.6257571512     0.6275604360
    5      C      -0.8105042102    -0.0235836362     0.3198639676
    6      C      -2.0639206522     0.4900002671     0.5460089223
    7      H       3.1606740585     1.4244279360     0.8655829536
    8      H       1.5253910855    -0.9754732152    -0.2654147914
    9      H      -0.7288195225    -0.9925629969    -0.1854063046
   10      C      -3.3587375186    -0.1211864610     0.1678902080
   11      H      -2.1313160140     1.4986704500     0.9709937209
   12      C      -3.6667768683    -1.4474152707     0.3696919878
   13      C      -4.9939971930    -2.0708474219    -0.0747605541
   14      C      -6.1060314617    -1.0463049686    -0.4033309069
   15      H      -5.3428733079    -2.7733019975     0.7071824925
   16      H      -4.8005153520    -2.7048299457    -0.9681175210
   17      C      -5.5151982933     0.1235777986    -1.2182990676
   18      H      -6.5553632517    -0.6687665287     0.5339756665
   19      H      -6.9210419151    -1.5380656374    -0.9652275365
   20      C      -4.3861091447     0.8883724812    -0.4544323403
   21      H      -6.3043888702     0.8433578354    -1.5056555657
   22      H      -5.0927806680    -0.2786537657    -2.1604881347
   23      C      -2.7322665190    -2.4448706377     1.0470838479
   24      H      -1.9385201560    -1.9538647755     1.6277246265
   25      H      -2.2416694442    -3.1125251552     0.3104705283
   26      H      -3.3049979683    -3.1030994631     1.7270241026
   27      C      -5.0105102583     1.7734985260     0.6790178325
   28      H      -5.5859290417     1.1640134781     1.3945165392
   29      H      -5.6854558608     2.5315849090     0.2420506740
   30      H      -4.2305495108     2.3096755247     1.2467114044
   31      C      -3.6799902963     1.8298800480    -1.4870430208
   32      H      -3.1768235424     1.2438532227    -2.2751143578
   33      H      -2.9244843138     2.4737281750    -1.0087928247
   34      H      -4.4285300499     2.4850882705    -1.9684570431
   35      C       5.4789238751     0.1430390087    -0.0036691454
   36      C       6.4386328508    -0.7085277569    -0.5288432021
   37      C       7.8769700874    -0.5230275626    -0.5688082303
   38      C       8.7470174731    -1.4254746647    -1.1052300341
   39      H       8.2885677597     0.3982027782    -0.1414932592
   40      H       6.0781232987    -1.6455254309    -0.9742655403
   41      H       9.8249435534    -1.2499300633    -1.1165416946
   42      H       8.4008096367    -2.3650501200    -1.5476424909
   43      H       3.8875324471    -1.2201032672    -0.5642689004
   44      C       0.4402583483     1.9732559418     1.3389340997
   45      H       1.4487483944     2.3472917537     1.5625731332
   46      H      -0.1122526543     1.9060501948     2.2935517786
   47      H      -0.0715941274     2.7385640887     0.7260450269
   48      C       5.8194830633     1.4812519070     0.6450561458
   49      H       6.8996661193     1.6797268170     0.6607506748
   50      H       5.4582612104     1.5180802656     1.6889985463
   51      H       5.3339445866     2.3154093096     0.1063262388
 ----------------------------------------------------------------

    9    -817.5968060639      3.45e-09  Convergence criterion met
 Total energy in the final basis set =     -817.5968060639
 Final energy is   -817.596806063902
 **  OPTIMIZATION CONVERGED  **

                    Orbital Energies (a.u.)
 --------------------------------------------------------------

 Alpha MOs
 -- Occupied --
 -9.932  -9.932  -9.930  -9.922  -9.921  -9.919  -9.918  -9.917
 -9.917  -9.916  -9.915  -9.915  -9.914  -9.914  -9.914  -9.912
 -9.910  -9.907  -9.904  -9.903  -9.900  -0.753  -0.742  -0.729
 -0.697  -0.694  -0.682  -0.661  -0.639  -0.613  -0.608  -0.602
 -0.596  -0.592  -0.555  -0.528  -0.505  -0.491  -0.476  -0.468
 -0.457  -0.436  -0.418  -0.413  -0.403  -0.392  -0.387  -0.380
 -0.371  -0.363  -0.363  -0.362  -0.360  -0.349  -0.347  -0.341
 -0.340  -0.334  -0.331  -0.327  -0.318  -0.315  -0.311  -0.304
 -0.297  -0.295  -0.290  -0.287  -0.284  -0.280  -0.268  -0.264
 -0.257  -0.246  -0.238  -0.207  -0.181  -0.146

          Ground-State Mulliken Net Atomic Charges

     Atom                 Charge (a.u.)
  ----------------------------------------
      1 C                    -0.147425
      2 C                    -0.076127
      3 C                    -0.160733
      4 C                     0.152601
      5 C                    -0.118806
      6 C                    -0.160738
      7 H                     0.094777
      8 H                     0.086223
      9 H                     0.096270
     10 C                     0.084602
     11 H                     0.096978
     12 C                     0.095702
     13 C                    -0.275048
     14 C                    -0.218342
     15 H                     0.110427
     16 H                     0.121180
     17 C                    -0.206556
     18 H                     0.114388
     19 H                     0.101144
     20 C                     0.014532
     21 H                     0.096837
     22 H                     0.105691
     23 C                    -0.438428
     24 H                     0.140794
     25 H                     0.128117
     26 H                     0.116660
     27 C                    -0.368538
     28 H                     0.121754
     29 H                     0.113030
     30 H                     0.116525
     31 C                    -0.359705
     32 H                     0.119101
     33 H                     0.111922
     34 H                     0.108790
     35 C                     0.158934
     36 C                    -0.160904
     37 C                    -0.029164
     38 C                    -0.283481
     39 H                     0.095153
     40 H                     0.088101
     41 H                     0.106122
     42 H                     0.107731
     43 H                     0.088580
     44 C                    -0.451998
     45 H                     0.128103
     46 H                     0.138921
     47 H                     0.138739
     48 C                    -0.450742
     49 H                     0.128952
     50 H                     0.139387
     51 H                     0.139966
  ----------------------------------------
  Sum of atomic charges =    -0.000000

                    Cartesian Multipole Moments
 -----------------------------------------------------------------
    Charge (ESU x 10^10)
                -0.0000
    Dipole Moment (Debye)
         X      -0.7804      Y       0.4591      Z       0.2279
       Tot       0.9336
    Quadrupole Moments (Debye-Ang)
        XX    -126.6242     XY       4.0984     YY    -125.8316
        XZ       1.7183     YZ       4.2868     ZZ    -134.1365

 Total job time:  623.24s(wall), 2451.69s(cpu)
        *  Thank you very much for using Q-Chem.  Have a nice day.  *
