 Q-Chem 5.1, Q-Chem, Inc., Pleasanton, CA (2018)
 Q-Chem 5.1.1 for Intel X86 EM64T Linux

User input:
--------------------------------------------------------------
$molecule
2 5
Fe        -1.04865        2.52535        0.29875
O         -0.31061        2.95662        1.46301
H          1.54308       -0.24691        2.82817
H          2.24339        1.75814       -2.51719
H          4.08773        0.92211       -0.58024
O         -0.87336        0.99200       -0.34168
H          0.55813        1.20635       -2.19645
H          3.88282       -0.45323        1.68606
C          1.46288       -1.30133        2.49422
C          1.60599        0.86997       -2.30513
H         -5.45207        0.16978        1.82876
C          2.17132        0.09433       -1.08623
H         -3.22224        0.23514        0.70447
H          2.06854       -1.92868        3.17988
H          0.41106       -1.64169        2.58281
C          3.71431       -0.00924       -1.08496
C          1.40898       -0.47677       -0.03190
C         -0.07848       -0.34818        0.10385
C          3.62217       -1.35514        1.08848
H         -0.47923       -0.63646        1.10376
C         -5.67949       -0.73965        1.23211
C          2.03446       -1.48994        1.02530
H          1.68370        0.20549       -3.19983
C         -3.46067       -0.65267        0.07959
H          4.07497        0.03810       -2.13757
C         -1.18036       -0.37753       -1.02995
C          4.28322       -1.25798       -0.32383
H          4.00396       -2.25034        1.63041
H          5.38255       -1.12908       -0.21486
H         -6.66064       -1.23179        1.41158
C         -4.78036       -1.24893        0.29222
C         -2.51512       -1.08146       -0.86815
H         -0.76969       -0.34283       -2.07371
C          1.66499       -2.95433        0.50175
H          4.10758       -2.18159       -0.91852
H          0.56730       -3.08474        0.44009
H          2.07475       -3.69572        1.21466
H         -5.06867       -2.13756       -0.30290
H          2.10907       -3.13304       -0.49572
C         -2.64149       -2.33186       -1.77308
H         -2.53093       -2.05632       -2.84404
H         -3.62079       -2.83039       -1.62911
H         -1.83598       -3.06076       -1.52605
$end

$rem
JOBTYPE         freq
EXCHANGE        B3LYP
BASIS           STO-3G
SCF_MAX_CYCLES  250
SYMMETRY        false
SYM_IGNORE      true
$end

--------------------------------------------------------------

   25   -2014.4873094848      8.94e-09  Convergence criterion met
 Total energy in the final basis set =    -2014.4873094848
 Frequency:       -24.47                  43.72                  61.24
 Force Cnst:      0.0038                 0.0079                 0.0115
 Red. Mass:      10.7530                 7.0529                 5.1855
 IR Intens:        4.473                  1.781                  1.285
 Frequency:        69.98                  83.21                  99.54
 Force Cnst:      0.0253                 0.0173                 0.0205
 Red. Mass:       8.7687                 4.2367                 3.5112
 IR Intens:        0.119                  1.382                  0.801
 Frequency:       112.62                 152.85                 164.89
 Force Cnst:      0.0268                 0.0550                 0.0493
 Red. Mass:       3.5803                 3.9939                 3.0807
 IR Intens:        0.254                  0.835                 24.434
 Frequency:       177.45                 186.42                 205.75
 Force Cnst:      0.0603                 0.0918                 0.0789
 Red. Mass:       3.2477                 4.4831                 3.1634
 IR Intens:        4.867                  2.216                  1.711
 Frequency:       219.10                 241.91                 252.46
 Force Cnst:      0.1928                 0.0732                 0.1086
 Red. Mass:       6.8164                 2.1222                 2.8924
 IR Intens:       22.879                  5.714                  9.893
 Frequency:       256.10                 288.05                 294.29
 Force Cnst:      0.0481                 0.1380                 0.1115
 Red. Mass:       1.2448                 2.8223                 2.1854
 IR Intens:        1.203                  5.856                  5.755
 Frequency:       306.61                 316.94                 334.95
 Force Cnst:      0.1285                 0.1208                 0.1293
 Red. Mass:       2.3199                 2.0418                 1.9565
 IR Intens:       13.141                 11.966                  2.591
 Frequency:       351.90                 373.06                 376.73
 Force Cnst:      0.0855                 0.1170                 0.2130
 Red. Mass:       1.1713                 1.4272                 2.5478
 IR Intens:        1.348                  4.282                 19.695
 Frequency:       385.50                 403.20                 415.45
 Force Cnst:      0.1465                 0.2431                 0.3015
 Red. Mass:       1.6736                 2.5375                 2.9647
 IR Intens:        0.589                  0.562                 15.878
 Frequency:       418.21                 445.45                 465.51
 Force Cnst:      0.3531                 0.3152                 0.3745
 Red. Mass:       3.4270                 2.6965                 2.9330
 IR Intens:        7.775                  8.983                 46.210
 Frequency:       508.42                 523.42                 566.72
 Force Cnst:      0.5278                 0.5555                 0.7149
 Red. Mass:       3.4657                 3.4416                 3.7777
 IR Intens:       22.955                 16.410                 26.878
 Frequency:       569.63                 597.44                 613.78
 Force Cnst:      0.7201                 0.5566                 1.1785
 Red. Mass:       3.7665                 2.6469                 5.3097
 IR Intens:       98.490                 10.975                 18.713
 Frequency:       641.68                 685.78                 718.23
 Force Cnst:      0.3073                 1.3602                 0.9761
 Red. Mass:       1.2665                 4.9088                 3.2115
 IR Intens:        4.274                  5.312                 46.095
 Frequency:       818.74                 844.41                 873.67
 Force Cnst:      1.3818                 1.6084                 1.9362
 Red. Mass:       3.4987                 3.8287                 4.3053
 IR Intens:        1.373                 93.303                 14.056
 Frequency:       911.14                 933.21                 956.61
 Force Cnst:      0.8563                 1.2074                 0.9945
 Red. Mass:       1.7507                 2.3530                 1.8445
 IR Intens:      184.446                  1.076                  5.667
 Frequency:       960.29                1001.18                1016.44
 Force Cnst:      0.8940                 1.2237                 1.1969
 Red. Mass:       1.6455                 2.0721                 1.9664
 IR Intens:       22.574                  1.886                111.258
 Frequency:      1024.49                1036.74                1042.35
 Force Cnst:      1.0660                 0.8332                 0.9918
 Red. Mass:       1.7238                 1.3157                 1.5494
 IR Intens:       34.523                  3.145                114.823
 Frequency:      1045.75                1055.90                1059.44
 Force Cnst:      0.8749                 1.1450                 1.1306
 Red. Mass:       1.3579                 1.7431                 1.7097
 IR Intens:       29.807                187.384                 48.602
 Frequency:      1079.59                1117.12                1123.41
 Force Cnst:      0.9172                 0.9645                 1.0120
 Red. Mass:       1.3356                 1.3118                 1.3610
 IR Intens:       47.812                  8.340                  2.948
 Frequency:      1127.96                1136.53                1147.10
 Force Cnst:      1.4548                 1.2742                 1.4218
 Red. Mass:       1.9407                 1.6742                 1.8340
 IR Intens:       27.314                 36.794                  4.198
 Frequency:      1154.15                1181.36                1203.15
 Force Cnst:      1.0944                 1.4372                 1.4973
 Red. Mass:       1.3944                 1.7479                 1.7556
 IR Intens:        1.267                 66.665                 60.338
 Frequency:      1221.13                1233.89                1263.36
 Force Cnst:      1.4202                 2.0980                 2.2319
 Red. Mass:       1.6165                 2.3388                 2.3734
 IR Intens:       37.777                 29.012                  2.805
 Frequency:      1273.57                1282.60                1301.75
 Force Cnst:      1.8638                 1.9529                 1.5626
 Red. Mass:       1.9504                 2.0148                 1.5651
 IR Intens:      234.580                 88.904                 29.129
 Frequency:      1312.18                1329.00                1356.68
 Force Cnst:      2.0168                 2.2546                 1.6189
 Red. Mass:       1.9881                 2.1665                 1.4928
 IR Intens:      222.264               1736.779                 85.148
 Frequency:      1370.11                1382.23                1414.80
 Force Cnst:      1.5371                 1.3857                 1.6626
 Red. Mass:       1.3898                 1.2310                 1.4098
 IR Intens:        8.654                  4.744                539.576
 Frequency:      1433.72                1461.95                1467.25
 Force Cnst:      1.8210                22.2482                 2.2737
 Red. Mass:       1.5036                17.6678                 1.7926
 IR Intens:      475.724                 18.063                600.408
 Frequency:      1481.57                1492.54                1505.71
 Force Cnst:      1.8065                 3.0131                 2.7986
 Red. Mass:       1.3969                 2.2957                 2.0951
 IR Intens:        4.585                 28.613               2032.836
 Frequency:      1518.70                1547.80                1549.07
 Force Cnst:      2.1250                 1.7032                 1.6851
 Red. Mass:       1.5637                 1.2067                 1.1919
 IR Intens:       38.599                 50.161                 30.896
 Frequency:      1560.98                1572.70                1585.42
 Force Cnst:      1.7452                 2.6519                 1.8035
 Red. Mass:       1.2156                 1.8197                 1.2178
 IR Intens:        7.625                198.070                 11.986
 Frequency:      1606.18                1613.53                1626.64
 Force Cnst:      1.8639                 2.1952                 1.6333
 Red. Mass:       1.2262                 1.4311                 1.0477
 IR Intens:      411.424                496.498                 17.015
 Frequency:      1641.99                1647.57                1655.01
 Force Cnst:      1.7391                 1.8995                 1.7472
 Red. Mass:       1.0948                 1.1877                 1.0826
 IR Intens:       25.673                233.920                  9.557
 Frequency:      1664.73                1670.50                1670.87
 Force Cnst:      1.7662                 1.7669                 1.7610
 Red. Mass:       1.0817                 1.0747                 1.0706
 IR Intens:        1.649                  4.489                 11.877
 Frequency:      1671.68                1683.60                1695.85
 Force Cnst:      1.7444                 1.7678                 1.7794
 Red. Mass:       1.0595                 1.0586                 1.0501
 IR Intens:        1.602                  7.173                 11.043
 Frequency:      3195.61                3221.15                3240.62
 Force Cnst:      6.4256                 6.3640                 6.4254
 Red. Mass:       1.0680                 1.0410                 1.0385
 IR Intens:      230.543                100.606                 79.818
 Frequency:      3248.95                3266.87                3272.07
 Force Cnst:      6.4565                 6.5167                 6.7182
 Red. Mass:       1.0381                 1.0364                 1.0650
 IR Intens:        6.114                  4.811                 10.794
 Frequency:      3294.30                3306.76                3321.64
 Force Cnst:      6.8115                 7.0434                 6.9108
 Red. Mass:       1.0653                 1.0933                 1.0631
 IR Intens:       11.633                 24.898                355.095
 Frequency:      3345.36                3351.78                3357.28
 Force Cnst:      7.2457                 7.2836                 7.2660
 Red. Mass:       1.0989                 1.1004                 1.0941
 IR Intens:        4.058                 13.633                  2.744
 Frequency:      3361.49                3376.98                3377.08
 Force Cnst:      7.2741                 7.4633                 7.4148
 Red. Mass:       1.0926                 1.1108                 1.1035
 IR Intens:       22.880                  1.814                  9.778
 Frequency:      3396.43                3407.76                3419.45
 Force Cnst:      7.5427                 7.5739                 7.6373
 Red. Mass:       1.1098                 1.1070                 1.1086
 IR Intens:        5.587                  4.321                  3.551
 Frequency:      3420.30                3427.44                3428.48
 Force Cnst:      7.5720                 7.6527                 7.6602
 Red. Mass:       1.0986                 1.1057                 1.1061
 IR Intens:       96.431                 15.490                  5.578
 Frequency:      3435.64                3445.65                3481.63
 Force Cnst:      7.7080                 7.7545                 8.0141
 Red. Mass:       1.1083                 1.1086                 1.1221
 IR Intens:        2.177                  3.541                 45.858

 STANDARD THERMODYNAMIC QUANTITIES AT   298.15 K  AND     1.00 ATM

   This Molecule has  1 Imaginary Frequencies
   Zero point vibrational energy:      245.810 kcal/mol

   Atom    1 Element Fe Has Mass   55.93490
   Atom    2 Element O  Has Mass   15.99491
   Atom    3 Element H  Has Mass    1.00783
   Atom    4 Element H  Has Mass    1.00783
   Atom    5 Element H  Has Mass    1.00783
   Atom    6 Element O  Has Mass   15.99491
   Atom    7 Element H  Has Mass    1.00783
   Atom    8 Element H  Has Mass    1.00783
   Atom    9 Element C  Has Mass   12.00000
   Atom   10 Element C  Has Mass   12.00000
   Atom   11 Element H  Has Mass    1.00783
   Atom   12 Element C  Has Mass   12.00000
   Atom   13 Element H  Has Mass    1.00783
   Atom   14 Element H  Has Mass    1.00783
   Atom   15 Element H  Has Mass    1.00783
   Atom   16 Element C  Has Mass   12.00000
   Atom   17 Element C  Has Mass   12.00000
   Atom   18 Element C  Has Mass   12.00000
   Atom   19 Element C  Has Mass   12.00000
   Atom   20 Element H  Has Mass    1.00783
   Atom   21 Element C  Has Mass   12.00000
   Atom   22 Element C  Has Mass   12.00000
   Atom   23 Element H  Has Mass    1.00783
   Atom   24 Element C  Has Mass   12.00000
   Atom   25 Element H  Has Mass    1.00783
   Atom   26 Element C  Has Mass   12.00000
   Atom   27 Element C  Has Mass   12.00000
   Atom   28 Element H  Has Mass    1.00783
   Atom   29 Element H  Has Mass    1.00783
   Atom   30 Element H  Has Mass    1.00783
   Atom   31 Element C  Has Mass   12.00000
   Atom   32 Element C  Has Mass   12.00000
   Atom   33 Element H  Has Mass    1.00783
   Atom   34 Element C  Has Mass   12.00000
   Atom   35 Element H  Has Mass    1.00783
   Atom   36 Element H  Has Mass    1.00783
   Atom   37 Element H  Has Mass    1.00783
   Atom   38 Element H  Has Mass    1.00783
   Atom   39 Element H  Has Mass    1.00783
   Atom   40 Element C  Has Mass   12.00000
   Atom   41 Element H  Has Mass    1.00783
   Atom   42 Element H  Has Mass    1.00783
   Atom   43 Element H  Has Mass    1.00783
   Molecular Mass:   304.112640 amu
   Principal axes and moments of inertia in amu*Bohr^2:
                             1           2           3
    Eigenvalues --     4634.75373  8930.26907 10712.33543
          X               0.99216     0.12336     0.02023
          Y              -0.12213     0.99105    -0.05389
          Z              -0.02670     0.05100     0.99834
   Rotational Symmetry Number is   1
   The Molecule is an Asymmetric Top
   Translational Enthalpy:        0.889 kcal/mol
   Rotational Enthalpy:           0.889 kcal/mol
   Vibrational Enthalpy:        256.460 kcal/mol
   gas constant (RT):             0.592 kcal/mol
   Translational Entropy:        43.033  cal/mol.K
   Rotational Entropy:           34.449  cal/mol.K
   Vibrational Entropy:          65.412  cal/mol.K

   Total Enthalpy:              258.830 kcal/mol
   Total Entropy:               142.894  cal/mol.K

 Total job time:  1347.28s(wall), 9577.07s(cpu)
        *  Thank you very much for using Q-Chem.  Have a nice day.  *
 Q-Chem 5.1, Q-Chem, Inc., Pleasanton, CA (2018)
 Q-Chem 5.1.1 for Intel X86 EM64T Linux

User input:
--------------------------------------------------------------

$rem
JOBTYPE              ts
SCF_GUESS            read
GEOM_OPT_DMAX        100
GEOM_OPT_MAX_CYCLES  1500
EXCHANGE        B3LYP
BASIS                STO-3G
MAX_SCF_CYCLES       250
GEOM_OPT_HESSIAN     read
SYMMETRY             false
SYM_IGNORE           true
GEOM_OPT_CHARAC      true
$end

$molecule
read
$end
--------------------------------------------------------------

    2   -2014.4873094840      5.87e-09  Convergence criterion met
 Total energy in the final basis set =    -2014.4873094840
   16   -2014.4885177600      8.68e-09  Convergence criterion met
 Total energy in the final basis set =    -2014.4885177600
   17   -2014.4900955117      6.72e-09  Convergence criterion met
 Total energy in the final basis set =    -2014.4900955117
   17   -2014.4919434277      7.65e-09  Convergence criterion met
 Total energy in the final basis set =    -2014.4919434277
   16   -2014.4925311953      9.80e-09  Convergence criterion met
 Total energy in the final basis set =    -2014.4925311953
   17   -2014.4934695877      7.16e-09  Convergence criterion met
 Total energy in the final basis set =    -2014.4934695877
   17   -2014.4938255287      7.35e-09  Convergence criterion met
 **  OPTIMIZATION CONVERGED  **
 Total energy in the final basis set =    -2014.5059684256
   14   -2014.5059674099      5.97e-09  Convergence criterion met
 Total energy in the final basis set =    -2014.5059674099
   14   -2014.5059733726      6.84e-09  Convergence criterion met
 Total energy in the final basis set =    -2014.5059733726
   14   -2014.5059740620      8.18e-09  Convergence criterion met
 Total energy in the final basis set =    -2014.5059740620
   13   -2014.5059704579      8.99e-09  Convergence criterion met
 Total energy in the final basis set =    -2014.5059704579
   14   -2014.5059719401      5.74e-09  Convergence criterion met
 Total energy in the final basis set =    -2014.5059719401
   14   -2014.5059737003      6.09e-09  Convergence criterion met
 Total energy in the final basis set =    -2014.5059737003
   14   -2014.5059743687      4.54e-09  Convergence criterion met
 Total energy in the final basis set =    -2014.5059743687

             Standard Nuclear Orientation (Angstroms)
    I     Atom           X                Y                Z
 ----------------------------------------------------------------
    1      Fe     -1.3101132695     2.3283363243     0.4588842945
    2      O      -0.8329830449     3.6140894590     0.0058839405
    3      H       1.6847662214     0.1810307973     2.6256724686
    4      H       2.4181641911     1.4534129575    -2.5855825218
    5      H       4.1663445635     0.6732434503    -0.8826666388
    6      O      -0.8679905621     0.7994152354    -0.0786396164
    7      H       0.7497620043     1.3698756267    -1.9653137848
    8      H       3.8932873368    -0.2984366894     1.5687633774
    9      C       1.5351591023    -0.9066711367     2.5409249335
   10      C       1.6276979776     0.7688323994    -2.2370072249
   11      H      -4.8362021824    -1.0502350135     2.4292633395
   12      C       2.1772241060    -0.0853223526    -1.0801969606
   13      H      -2.8093742181    -0.5493432338     1.0887328273
   14      H       2.1085162323    -1.3934237365     3.3444134779
   15      H       0.4731861953    -1.1412074020     2.7086388381
   16      C       3.6964202941    -0.2946443563    -1.1649184584
   17      C       1.4241838750    -0.6272659529    -0.0316381860
   18      C      -0.0559369613    -0.5744331457     0.0524154648
   19      C       3.6296588550    -1.2879362989     1.1573370778
   20      H      -0.4781498071    -1.0909121934     0.9374889836
   21      C      -5.2983932284    -1.4462244377     1.5058646211
   22      C       2.0637962219    -1.4430266014     1.1571637570
   23      H       1.3746843210     0.1126329029    -3.0923302158
   24      C      -3.2668794682    -0.9597732268     0.1709084523
   25      H       3.9554104713    -0.4566771201    -2.2298669590
   26      C      -1.1353289094    -0.3255327505    -1.0497254096
   27      C       4.2369784567    -1.4328347246    -0.2604737911
   28      H       4.0468771473    -2.0535349131     1.8324409896
   29      H       5.3365232134    -1.3605838853    -0.2116811371
   30      H      -6.3303295922    -1.8378191183     1.5847685712
   31      C      -4.6206664218    -1.4584749553     0.2910164902
   32      C      -2.5173697802    -0.9538283447    -1.0179965226
   33      H      -0.7629065993    -0.0910817307    -2.0672506378
   34      C       1.6741243643    -2.9635428358     1.0057397045
   35      H       3.9826108157    -2.4136225378    -0.6949034270
   36      H       0.5823153191    -3.1022990061     1.0318320103
   37      H       2.1114827886    -3.5298942619     1.8418695743
   38      H      -5.1311114679    -1.8537457593    -0.6024958779
   39      H       2.0578032390    -3.3806777302     0.0624064082
   40      C      -2.9708560887    -1.5516981821    -2.3509212709
   41      H      -3.2245507981    -0.7370707435    -3.0590275183
   42      H      -3.8486963234    -2.2017538219    -2.2287885208
   43      H      -2.1510185902    -2.1401009541    -2.8021749227
 ----------------------------------------------------------------

                    Orbital Energies (a.u.)
 --------------------------------------------------------------
 Requested basis set is STO-3G
 There are 65 shells and 132 basis functions

 Alpha MOs
 -- Occupied --
******* -30.205 -26.646 -26.641 -26.636 -19.342 -19.265 -10.446
-10.430 -10.385 -10.366 -10.345 -10.344 -10.336 -10.312 -10.307
-10.289 -10.282 -10.265 -10.234 -10.229 -10.227 -10.227  -4.077
 -2.884  -2.877  -2.866  -1.381  -1.242  -1.112  -1.083  -1.052
 -1.020  -1.000  -0.966  -0.956  -0.936  -0.902  -0.877  -0.872
 -0.867  -0.835  -0.808  -0.794  -0.778  -0.768  -0.734  -0.720
 -0.717  -0.708  -0.700  -0.696  -0.683  -0.677  -0.668  -0.662
 -0.659  -0.652  -0.649  -0.637  -0.635  -0.631  -0.623  -0.622
 -0.617  -0.609  -0.606  -0.605  -0.592  -0.584  -0.577  -0.572
 -0.554  -0.545  -0.539  -0.515  -0.507  -0.504  -0.502  -0.495
 -0.490  -0.468

 Beta MOs
 -- Occupied --
******* -30.168 -26.616 -26.609 -26.604 -19.343 -19.270 -10.445
-10.430 -10.382 -10.365 -10.344 -10.341 -10.334 -10.311 -10.308
-10.289 -10.281 -10.265 -10.233 -10.229 -10.227 -10.227  -3.883
 -2.708  -2.656  -2.635  -1.380  -1.251  -1.105  -1.080  -1.046
 -1.015  -0.998  -0.963  -0.951  -0.936  -0.899  -0.876  -0.872
 -0.861  -0.830  -0.806  -0.791  -0.775  -0.764  -0.726  -0.714
 -0.711  -0.688  -0.682  -0.678  -0.664  -0.658  -0.657  -0.648
 -0.644  -0.641  -0.634  -0.631  -0.621  -0.615  -0.613  -0.610
 -0.605  -0.603  -0.592  -0.577  -0.571  -0.569  -0.554  -0.543
 -0.538  -0.503  -0.501  -0.492  -0.462  -0.460

          Ground-State Mulliken Net Atomic Charges

     Atom                 Charge (a.u.)    Spin (a.u.)
  --------------------------------------------------------
      1 Fe                    0.786123       3.503217
      2 O                    -0.192083      -0.292257
      3 H                     0.081329       0.000061
      4 H                     0.133641       0.001751
      5 H                     0.121459       0.007200
      6 O                    -0.253763      -0.027521
      7 H                     0.076136       0.001295
      8 H                     0.086107       0.000183
      9 C                    -0.222547       0.004241
     10 C                    -0.234031      -0.004625
     11 H                     0.143564      -0.014788
     12 C                     0.088673       0.079164
     13 H                     0.115665      -0.001871
     14 H                     0.112771       0.000437
     15 H                     0.065180      -0.000158
     16 C                    -0.136611      -0.001949
     17 C                    -0.005139       0.064151
     18 C                     0.056974       0.026148
     19 C                    -0.132425       0.002871
     20 H                     0.148991      -0.000627
     21 C                    -0.031810       0.332171
     22 C                     0.033490       0.003038
     23 H                     0.122118       0.005099
     24 C                    -0.026580       0.043650
     25 H                     0.119283       0.002866
     26 C                     0.045050      -0.000594
     27 C                    -0.132302       0.001041
     28 H                     0.103860       0.000452
     29 H                     0.111596       0.000152
     30 H                     0.167144      -0.014981
     31 C                    -0.027332       0.019136
     32 C                     0.069818       0.237086
     33 H                     0.160195       0.001959
     34 C                    -0.220026       0.008269
     35 H                     0.089799       0.000033
     36 H                     0.066689      -0.000088
     37 H                     0.107950       0.000062
     38 H                     0.144259      -0.001050
     39 H                     0.091685      -0.000121
     40 C                    -0.225965      -0.010455
     41 H                     0.134964       0.016164
     42 H                     0.126991       0.000709
     43 H                     0.129569       0.008650
  --------------------------------------------------------
  Sum of atomic charges =     2.000458

                    Cartesian Multipole Moments
 -----------------------------------------------------------------
    Charge (ESU x 10^10)
                 9.6086
    Dipole Moment (Debye)
         X     -10.5103      Y      -2.6278      Z      -1.4158
       Tot      10.9259
    Quadrupole Moments (Debye-Ang)
        XX     -18.9069     XY      12.3284     YY     -94.4379
        XZ      -8.7470     YZ      -1.5643     ZZ     -91.4614

 Total job time:  1570.26s(wall), 18732.83s(cpu)
        *  Thank you very much for using Q-Chem.  Have a nice day.  *
