 Q-Chem 5.1, Q-Chem, Inc., Pleasanton, CA (2018)
 Q-Chem 5.1.1 for Intel X86 EM64T Linux

User input:
--------------------------------------------------------------
$molecule
0 1
H         -1.36181        7.50756        7.52958
C         -0.43836        7.89911        7.93473
H          0.17865        9.26687        6.40863
N          0.34070        8.81100        7.33317
C          0.14393        7.56460        9.13674
C          1.37475        9.01644        8.16827
H         -0.23785        6.85601        9.85936
N          1.28451        8.26668        9.28535
H          2.18615        9.70351        7.96782
$end

$rem
BASIS = 6-31G
METHOD  = BLYP
JOBTYPE = OPT
$end
--------------------------------------------------------------

   13    -226.0565061951      5.64e-09  Convergence criterion met
 Total energy in the final basis set =     -226.0565061951
   12    -226.0663522307      8.48e-10  Convergence criterion met
 Total energy in the final basis set =     -226.0663522307
   11    -226.0673289074      1.47e-09  Convergence criterion met
 Total energy in the final basis set =     -226.0673289074
   11    -226.0674641446      6.57e-10  Convergence criterion met
 Total energy in the final basis set =     -226.0674641446
   10    -226.0674764222      4.42e-09  Convergence criterion met
 Total energy in the final basis set =     -226.0674764222

             Standard Nuclear Orientation (Angstroms)
    I     Atom           X                Y                Z
 ----------------------------------------------------------------
    1      H      -0.2570820700    -2.2445581734    -0.0003528425
    2      C      -0.2067189394    -1.1615764282    -0.0001912342
    3      H       1.9401618640    -0.8979914759    -0.0000341477
    4      N       1.0172585249    -0.4724504186    -0.0000728378
    5      C      -1.1846096958    -0.1765829559    -0.0003669188
    6      C       0.7293774396     0.8915915224     0.0000259653
    7      H      -2.2627456119    -0.2940995129    -0.0005553191
    8      N      -0.5970002952     1.1060341438     0.0003411204
    9      H       1.4975744527     1.6569500666     0.0001489932
 ----------------------------------------------------------------

    9    -226.0674771559      2.59e-09  Convergence criterion met
 Total energy in the final basis set =     -226.0674771559
 Final energy is   -226.067477155920
 **  OPTIMIZATION CONVERGED  **

                    Orbital Energies (a.u.)
 --------------------------------------------------------------

 Alpha MOs
 -- Occupied --
-14.081 -14.005  -9.973  -9.952  -9.931  -0.913  -0.781  -0.663
 -0.548  -0.522  -0.497  -0.387  -0.384  -0.365  -0.355  -0.233
 -0.199  -0.193

          Ground-State Mulliken Net Atomic Charges

     Atom                 Charge (a.u.)
  ----------------------------------------
      1 H                     0.129980
      2 C                     0.111125
      3 H                     0.299847
      4 N                    -0.590419
      5 C                    -0.057019
      6 C                     0.212531
      7 H                     0.115000
      8 N                    -0.359138
      9 H                     0.138093
  ----------------------------------------
  Sum of atomic charges =    -0.000000

                    Cartesian Multipole Moments
 -----------------------------------------------------------------
    Charge (ESU x 10^10)
                 0.0000
    Dipole Moment (Debye)
         X       2.7737      Y      -2.6865      Z      -0.0007
       Tot       3.8614
    Quadrupole Moments (Debye-Ang)
        XX     -23.3776     XY       1.8962     YY     -29.0680
        XZ       0.0014     YZ      -0.0004     ZZ     -31.4133

 Total job time:  12.21s(wall), 48.16s(cpu)
        *  Thank you very much for using Q-Chem.  Have a nice day.  *
