 Q-Chem 5.1, Q-Chem, Inc., Pleasanton, CA (2018)
 Q-Chem 5.1.1 for Intel X86 EM64T Linux

User input:
--------------------------------------------------------------
$molecule
0 1
H 0 0 0
H 0 0 0.74
$end

$rem
BASIS = 6-31G* !
METHOD  HF
$end
--------------------------------------------------------------

             Standard Nuclear Orientation (Angstroms)
    I     Atom           X                Y                Z
 ----------------------------------------------------------------
    1      H       0.0000000000     0.0000000000    -0.3700000000
    2      H       0.0000000000     0.0000000000     0.3700000000
 ----------------------------------------------------------------

    4      -1.1267553156      4.25e-07  Convergence criterion met
 Total energy in the final basis set =       -1.1267553156

                    Orbital Energies (a.u.)
 --------------------------------------------------------------

 Alpha MOs
 -- Occupied --
 -0.596

          Ground-State Mulliken Net Atomic Charges

     Atom                 Charge (a.u.)
  ----------------------------------------
      1 H                    -0.000000
      2 H                     0.000000
  ----------------------------------------
  Sum of atomic charges =    -0.000000

                    Cartesian Multipole Moments
 -----------------------------------------------------------------
    Charge (ESU x 10^10)
                 0.0000
    Dipole Moment (Debye)
         X       0.0000      Y       0.0000      Z       0.0000
       Tot       0.0000
    Quadrupole Moments (Debye-Ang)
        XX      -2.0430     XY       0.0000     YY      -2.0430
        XZ       0.0000     YZ       0.0000     ZZ      -1.6188

 Total job time:  0.03s(wall), 0.02s(cpu)
        *  Thank you very much for using Q-Chem.  Have a nice day.  *
