 Q-Chem 5.1, Q-Chem, Inc., Pleasanton, CA (2018)
 Q-Chem 5.1.1 for Intel X86 EM64T Linux

User input:
--------------------------------------------------------------
$molecule
0 1
C         -0.29035        4.20842       -1.28344
C         -0.62064        3.12665       -0.56577
C          0.39026        2.41313        0.24211
C          0.06108        1.33105        0.96015
C          1.07299        0.61741        1.76954
C          0.74530       -0.48394        2.46932
H         -1.64634        2.76487       -0.57469
H          1.41561        2.77593        0.25085
H          2.09133        0.98543        1.74465
C          1.69582       -1.32607        3.28642
H         -0.27187       -0.83744        2.34925
C          2.78296       -0.81535        3.97090
C          3.75021       -1.71799        4.71537
C          3.09572       -2.98957        5.24888
H          4.26218       -1.18145        5.54403
H          4.54887       -2.00125        3.99488
C          2.45366       -3.68958        4.05483
O          2.15343       -2.70188        6.24649
H          3.88083       -3.66196        5.66702
C          1.34367       -2.84003        3.36187
H          2.06670       -4.69535        4.33075
H          3.28432       -3.86788        3.33306
C          3.09403        0.65973        4.13831
H          2.30947        1.35504        3.80333
H          4.06239        0.90154        3.65236
H          3.17994        0.88386        5.22263
C          0.00683       -3.01374        4.13028
H          0.04873       -2.57804        5.14642
H         -0.25335       -4.09030        4.22296
H         -0.84221       -2.52910        3.60947
C          1.15922       -3.42553        1.94131
H          2.09060       -3.30639        1.34654
H          0.33720       -2.92248        1.39066
H          0.91133       -4.50829        1.99124
C         -1.30037        4.92320       -2.09135
C         -0.96874        6.00479       -2.80870
C         -1.97774        6.72098       -3.61663
C         -1.64461        7.80239       -4.33357
H         -3.00425        6.36151       -3.62616
H          0.05751        6.36509       -2.79922
H          0.73549        4.56988       -1.27428
C         -2.65250        8.52007       -5.14156
C         -2.31782        9.60128       -5.85809
C         -3.32458       10.32042       -6.66618
C         -2.98838       11.40135       -7.38242
H         -1.96081       11.75778       -7.37184
H         -4.35197        9.96349       -6.67642
C         -3.99415       12.12183       -8.19065
C         -3.65655       13.20305       -8.90727
H         -5.02159       11.76520       -8.20031
C         -4.66163       13.92992       -9.71957
H         -0.61794        8.16145       -4.32371
H         -3.67945        8.16188       -5.15148
C         -4.30476       15.01519      -10.43721
H         -5.65429       13.53214       -9.69033
C         -5.14182       15.91557      -11.33700
H         -3.25865       15.25828      -10.34522
C         -6.50549       15.79200      -11.56017
C         -7.22273       16.83934      -12.41220
C         -6.81397       18.21076      -11.88551
H         -8.32772       16.73764      -12.36285
H         -6.97930       16.76063      -13.48200
C         -4.42164       17.09309      -12.06868
C         -7.39389       14.74229      -10.94085
H         -8.45562       14.85775      -11.24108
H         -7.37510       14.83313       -9.83512
H         -7.08760       13.73504      -11.29101
C         -4.17722       16.65444      -13.54144
H         -5.07247       16.37263      -14.11177
H         -3.51476       15.76160      -13.56285
H         -3.67136       17.46173      -14.11455
C         -3.01344       17.45366      -11.52327
H         -3.07085       17.72759      -10.44766
H         -2.59415       18.32441      -12.07394
H         -2.28113       16.62920      -11.65292
C         -5.27768       18.41243      -11.99936
O         -7.25538       18.35210      -10.55178
H         -7.31131       19.02232      -12.45940
H         -4.98887       19.05737      -11.13895
H         -5.03223       19.02041      -12.89813
H         -6.63920       17.85880       -9.94982
H          2.66488       -2.45193        7.05983
H         -2.62691       13.55345       -8.89243
H         -1.29070        9.95905       -5.84786
H         -2.32645        4.56252       -2.10052
H         -0.96490        0.97015        0.95036
$end

$rem
BASIS = 6-31G
METHOD  = BLYP
JOBTYPE = OPT
$end
--------------------------------------------------------------

   16   -1549.8612464378      8.84e-09  Convergence criterion met
 Total energy in the final basis set =    -1549.8612464378
   13   -1549.8954614443      3.55e-09  Convergence criterion met
 Total energy in the final basis set =    -1549.8954614443
   13   -1549.9087959873      8.63e-09  Convergence criterion met
 Total energy in the final basis set =    -1549.9087959873
   13   -1549.9116055001      8.83e-09  Convergence criterion met
 Total energy in the final basis set =    -1549.9116055001
   13   -1549.9131989382      5.90e-09  Convergence criterion met
 Total energy in the final basis set =    -1549.9131989382
   13   -1549.9139058970      6.13e-09  Convergence criterion met
 Total energy in the final basis set =    -1549.9139058970
   13   -1549.9144481379      4.86e-09  Convergence criterion met
 Total energy in the final basis set =    -1549.9144481379
   13   -1549.9146188591      6.89e-09  Convergence criterion met
   13   -1549.9224425231      4.18e-09  Convergence criterion met
 Total energy in the final basis set =    -1549.9224425231
   12   -1549.9224935873      5.07e-09  Convergence criterion met
 Total energy in the final basis set =    -1549.9224935873
   12   -1549.9225433747      2.31e-09  Convergence criterion met
 Total energy in the final basis set =    -1549.9225433747
   12   -1549.9225741948      3.10e-09  Convergence criterion met
 Total energy in the final basis set =    -1549.9225741948
   10   -1549.9225810884      8.09e-09  Convergence criterion met
 Total energy in the final basis set =    -1549.9225810884
   10   -1549.9225834831      5.65e-09  Convergence criterion met
 Total energy in the final basis set =    -1549.9225834831

             Standard Nuclear Orientation (Angstroms)
    I     Atom           X                Y                Z
 ----------------------------------------------------------------
    1      C       4.3388449445    -0.2721673708    -0.0700355788
    2      C       5.5547723212     0.3064593951    -0.4044717372
    3      C       6.8365673369    -0.2605305354    -0.1038550080
    4      C       8.0501990217     0.3250623619    -0.4191327304
    5      C       9.3376744813    -0.2329442837    -0.0876912164
    6      C      10.5359187256     0.3910302515    -0.3599225725
    7      H       5.5448109747     1.2716914986    -0.9288549026
    8      H       6.8451263800    -1.2244963313     0.4231804143
    9      H       9.3319828443    -1.1865896020     0.4514666116
   10      C      11.8997335090    -0.0530809020    -0.0176717902
   11      H      10.4682060736     1.3832710975    -0.8250902020
   12      C      12.3182873900    -1.3630445351    -0.0979974230
   13      C      13.7174894268    -1.8098394259     0.3314356813
   14      C      14.7714252493    -0.6865784707     0.4232681266
   15      H      14.0806635733    -2.6006961308    -0.3562163793
   16      H      13.6487224618    -2.3069658783     1.3239345722
   17      C      14.1668224510     0.5640339358     1.0757455759
   18      O      15.2779990013    -0.2904647305    -0.9167345959
   19      H      15.6295334534    -1.0395727976     1.0314997894
   20      C      12.8641088182     1.1110596599     0.4005110354
   21      H      14.9243421154     1.3668348168     1.1043413212
   22      H      13.9402117324     0.2986669157     2.1264977705
   23      C      11.4540150868    -2.5098583978    -0.6110270766
   24      H      10.6145332651    -2.1590793433    -1.2285564140
   25      H      11.0282157704    -3.1128439016     0.2162548239
   26      H      12.0648651464    -3.2042012714    -1.2171552487
   27      C      13.2295082711     1.9704691184    -0.8610313964
   28      H      13.7791009609     1.3638253507    -1.5928327498
   29      H      13.8719560873     2.8181876814    -0.5613698437
   30      H      12.3261944804     2.3905647949    -1.3360281845
   31      C      12.1646095186     2.0376624944     1.4534992178
   32      H      11.8057831264     1.4539076171     2.3188403282
   33      H      11.3013971094     2.5699215573     1.0222618187
   34      H      12.8793271531     2.7961134533     1.8207715023
   35      C       3.0592721614     0.3031144177    -0.3500383525
   36      C       1.8431605642    -0.2698982773    -0.0002986556
   37      C       0.5637485115     0.3098872751    -0.2655541704
   38      C      -0.6504419145    -0.2614287725     0.0953084647
   39      H       0.5486376762     1.2761650385    -0.7878834865
   40      H       1.8566523476    -1.2357933276     0.5228935776
   41      H       4.3500794662    -1.2373562497     0.4545510730
   42      C      -1.9321638438     0.3178849202    -0.1596276644
   43      C      -3.1419311017    -0.2563928678     0.2095406666
   44      C      -4.4291056388     0.3166994920    -0.0381587049
   45      C      -5.6311345356    -0.2660483555     0.3371449459
   46      H      -5.5969373513    -1.2315295712     0.8602321466
   47      H      -4.4577644310     1.2822813720    -0.5611669402
   48      C      -6.9279084149     0.2944255830     0.0947708006
   49      C      -8.1174169525    -0.3017445527     0.4764402415
   50      H      -6.9685249005     1.2591577385    -0.4290747213
   51      C      -9.4311382218     0.2409188154     0.2381331675
   52      H      -0.6330753755    -1.2276353952     0.6178176327
   53      H      -1.9524180838     1.2839774009    -0.6820988840
   54      C     -10.5910393317    -0.4064223995     0.6106011010
   55      H      -9.4779389840     1.1968108910    -0.2945963622
   56      C     -11.9927103102     0.0000474488     0.4107074121
   57      H     -10.4511162868    -1.3953475335     1.0636864411
   58      C     -12.4216407683     1.3127783097     0.4332188543
   59      C     -13.8644105035     1.7080049156     0.1037547267
   60      C     -14.6055777391     0.6293842041    -0.7080003430
   61      H     -13.8639126921     2.6570134196    -0.4654705270
   62      H     -14.4217285870     1.9185247351     1.0411566059
   63      C     -12.9872546938    -1.2038830791     0.2257556884
   64      C     -11.5522588332     2.4992860662     0.8307456400
   65      H     -12.1518041255     3.2168793830     1.4216632580
   66      H     -11.1810750004     3.0599993285    -0.0501026138
   67      H     -10.6802287368     2.1997666381     1.4297406879
   68      C     -12.9695253242    -2.1012382920     1.5136141294
   69      H     -13.1686271877    -1.5000539778     2.4173075990
   70      H     -12.0085561565    -2.6234042291     1.6516936201
   71      H     -13.7538822940    -2.8749956103     1.4346004525
   72      C     -12.5579900590    -2.0837981183    -1.0006732043
   73      H     -12.7407395333    -1.5511582040    -1.9467338128
   74      H     -13.1544114301    -3.0131002541    -1.0213991677
   75      H     -11.4924007452    -2.3610553344    -0.9489158092
   76      C     -14.4699205928    -0.7255325608     0.0150199808
   77      O     -14.1156013890     0.5936302735    -2.1139547129
   78      H     -15.6696192954     0.8910832878    -0.8209401727
   79      H     -15.0235366675    -1.5057883186    -0.5347621262
   80      H     -14.9650296548    -0.6131896325     0.9992462299
   81      H     -13.1239349399     0.6379142502    -2.0881014572
   82      H      15.6195659141    -1.1004420400    -1.3757256690
   83      H      -8.0692321708    -1.2658187704     1.0014332872
   84      H      -3.1179764957    -1.2224628938     0.7320766739
   85      H       3.0471548069     1.2691164049    -0.8729759046
   86      H       8.0445508218     1.2885146693    -0.9469875833
 ----------------------------------------------------------------

   10   -1549.9225838879      1.92e-09  Convergence criterion met
 Total energy in the final basis set =    -1549.9225838879
 Final energy is   -1549.92258388793
 **  OPTIMIZATION CONVERGED  **

                    Orbital Energies (a.u.)
 --------------------------------------------------------------

 Alpha MOs
 -- Occupied --
-18.784 -18.777  -9.972  -9.965  -9.940  -9.933  -9.933  -9.928
 -9.928  -9.926  -9.924  -9.924  -9.924  -9.924  -9.924  -9.924
 -9.924  -9.924  -9.924  -9.924  -9.923  -9.923  -9.923  -9.923
 -9.923  -9.923  -9.922  -9.921  -9.921  -9.921  -9.915  -9.913
 -9.911  -9.911  -9.909  -9.901  -9.900  -9.890  -0.908  -0.900
 -0.758  -0.755  -0.740  -0.735  -0.727  -0.716  -0.704  -0.703
 -0.699  -0.691  -0.679  -0.668  -0.654  -0.639  -0.624  -0.611
 -0.607  -0.605  -0.603  -0.598  -0.594  -0.572  -0.552  -0.537
 -0.523  -0.512  -0.506  -0.500  -0.497  -0.496  -0.489  -0.485
 -0.482  -0.478  -0.455  -0.443  -0.432  -0.428  -0.423  -0.418
 -0.412  -0.407  -0.403  -0.399  -0.393  -0.389  -0.385  -0.382
 -0.378  -0.375  -0.373  -0.368  -0.363  -0.359  -0.357  -0.352
 -0.351  -0.348  -0.346  -0.344  -0.343  -0.341  -0.336  -0.332
 -0.330  -0.327  -0.322  -0.317  -0.316  -0.315  -0.311  -0.307
 -0.305  -0.304  -0.303  -0.302  -0.301  -0.300  -0.298  -0.297
 -0.296  -0.289  -0.285  -0.283  -0.277  -0.271  -0.269  -0.266
 -0.259  -0.251  -0.248  -0.247  -0.234  -0.217  -0.205  -0.202
 -0.195  -0.183  -0.162  -0.137

          Ground-State Mulliken Net Atomic Charges

     Atom                 Charge (a.u.)
  ----------------------------------------
      1 C                    -0.094421
      2 C                    -0.092420
      3 C                    -0.095472
      4 C                    -0.095237
      5 C                    -0.070748
      6 C                    -0.166755
      7 H                     0.091563
      8 H                     0.089780
      9 H                     0.098582
     10 C                     0.097632
     11 H                     0.101041
     12 C                     0.105129
     13 C                    -0.290565
     14 C                     0.094952
     15 H                     0.102213
     16 H                     0.125317
     17 C                    -0.209403
     18 O                    -0.556471
     19 H                     0.095364
     20 C                     0.010844
     21 H                     0.119544
     22 H                     0.107767
     23 C                    -0.442046
     24 H                     0.145574
     25 H                     0.129879
     26 H                     0.116502
     27 C                    -0.368028
     28 H                     0.161180
     29 H                     0.107645
     30 H                     0.103568
     31 C                    -0.362735
     32 H                     0.115163
     33 H                     0.115572
     34 H                     0.112016
     35 C                    -0.092836
     36 C                    -0.094413
     37 C                    -0.092529
     38 C                    -0.094747
     39 H                     0.091665
     40 H                     0.091108
     41 H                     0.090727
     42 C                    -0.092078
     43 C                    -0.095365
     44 C                    -0.091557
     45 C                    -0.095811
     46 H                     0.091057
     47 H                     0.091429
     48 C                    -0.091484
     49 C                    -0.100368
     50 H                     0.090700
     51 C                    -0.068343
     52 H                     0.091262
     53 H                     0.091620
     54 C                    -0.166381
     55 H                     0.098150
     56 C                     0.098269
     57 H                     0.096137
     58 C                     0.063607
     59 C                    -0.292830
     60 C                     0.084777
     61 H                     0.131815
     62 H                     0.125751
     63 C                     0.005099
     64 C                    -0.442677
     65 H                     0.124543
     66 H                     0.132819
     67 H                     0.144399
     68 C                    -0.371829
     69 H                     0.119933
     70 H                     0.120026
     71 H                     0.119634
     72 C                    -0.372352
     73 H                     0.124832
     74 H                     0.113799
     75 H                     0.117255
     76 C                    -0.212637
     77 O                    -0.559198
     78 H                     0.117875
     79 H                     0.119763
     80 H                     0.105106
     81 H                     0.334823
     82 H                     0.331915
     83 H                     0.090691
     84 H                     0.091265
     85 H                     0.091648
     86 H                     0.091412
  ----------------------------------------
  Sum of atomic charges =    -0.000000

                    Cartesian Multipole Moments
 -----------------------------------------------------------------
    Charge (ESU x 10^10)
                -0.0000
    Dipole Moment (Debye)
         X       2.3251      Y      -1.5105      Z       2.4503
       Tot       3.7002
    Quadrupole Moments (Debye-Ang)
        XX    -217.3951     XY     -31.0437     YY    -220.1466
        XZ     -19.2252     YZ      -4.9736     ZZ    -242.7261

 Total job time:  3689.02s(wall), 14647.48s(cpu)
        *  Thank you very much for using Q-Chem.  Have a nice day.  *
