 Q-Chem 5.1, Q-Chem, Inc., Pleasanton, CA (2018)
 Q-Chem 5.1.1 for Intel X86 EM64T Linux

User input:
--------------------------------------------------------------
$molecule
0 1
C
C  1 1.376407
C  1 1.480903 2 123.773346
H  3 1.096617 1 115.139855 2 -140.366137 0
C  3 1.373304 1 126.986263 2 45.379416 0
H  5 1.095852 3 118.335826 1 -0.560282 0
C  5 1.460739 3 126.420608 1 176.133970 0
C  7 1.388281 5 118.356986 3 -175.261759 0
H  8 1.098697 7 116.459002 5 -1.403032 0
C  8 1.440351 7 128.468379 5 177.429204 0
H  10 1.094007 8 118.285177 7 0.650768 0
C  10 1.381170 8 122.972372 7 -178.492499 0
H  12 1.098354 10 117.477263 8 -0.836193 0
C  12 1.454677 10 126.886487 8 178.740632 0
C  14 1.386368 12 118.535798 10 -179.806061 0
H  15 1.098332 14 116.770857 12 -0.188033 0
C  15 1.450800 14 128.184663 12 179.796833 0
H  17 1.095754 15 117.979543 14 -0.261096 0
C  17 1.363503 15 123.974719 14 179.714200 0
H  19 1.092185 17 121.834104 15 -179.989068 0
H  19 1.094710 17 121.685516 15 0.012618 0
C  7 1.523892 5 118.645877 3 3.628431 0
H  22 1.098622 7 112.545248 5 177.305046 0
H  22 1.105025 7 110.878896 5 56.611882 0
H  22 1.106039 7 111.072681 5 -62.002536 0
C  2 1.525479 1 123.919761 3 2.003883 0
H  26 1.099211 2 112.634572 1 17.779526 0
H  26 1.106167 2 110.172806 1 138.895074 0
H  26 1.108624 2 111.705047 1 -103.306632 0
C  14 1.525660 12 118.416415 10 -0.126268 0
H  30 1.098378 14 112.587630 12 179.441375 0
H  30 1.105284 14 110.970413 12 58.804227 0
H  30 1.105349 14 110.894170 12 -59.921375 0
C  2 1.532227 1 122.913633 3 -177.743744 0
H  34 1.107516 2 109.034054 1 -140.001751 0
H  34 1.112410 2 108.311255 1 106.155409 0
C  34 1.547342 2 114.500755 1 -16.184206 0
H  37 1.105350 34 110.076200 2 164.808053 0
H  37 1.105883 34 109.759580 2 -78.344488 0
C  37 1.543335 34 109.810547 2 42.873005 0
H  40 1.106110 37 110.935142 34 177.250796 0
H  40 1.108128 37 108.648807 34 60.265737 0
C  40 1.563088 37 112.915105 34 -60.182575 0
C  43 1.565671 40 107.319471 37 168.234091 0
H  44 1.101841 43 111.984862 40 174.999223 0
H  44 1.103477 43 110.935084 40 -64.358378 0
H  44 1.105156 43 109.775969 40 55.194259 0
C  43 1.567812 40 109.989443 37 -73.945657 0
H  48 1.102051 43 111.413025 40 58.641511 0
H  48 1.103676 43 111.387959 40 178.903426 0
H  48 1.105073 43 110.161699 40 -61.820136 0
$end

$rem
BASIS = VDZ
METHOD  = B97M-rV
JOBTYPE = OPT
$end
--------------------------------------------------------------

   16    -817.3859908346      3.50e-09  Convergence criterion met
 Total energy in the final basis set =     -817.3859908346
   13    -817.3898262392      2.25e-09  Convergence criterion met
 Total energy in the final basis set =     -817.3898262392
   12    -817.3900459475      3.34e-09  Convergence criterion met
 Total energy in the final basis set =     -817.3900459475
   12    -817.3904561138      5.34e-09  Convergence criterion met
 Total energy in the final basis set =     -817.3904561138
   12    -817.3906317192      2.55e-09  Convergence criterion met
 Total energy in the final basis set =     -817.3906317192
   11    -817.3906791478      5.81e-09  Convergence criterion met
 Total energy in the final basis set =     -817.3906791478
   11    -817.3907111988      4.30e-09  Convergence criterion met
 Total energy in the final basis set =     -817.3907111988
   10    -817.3907309787      7.87e-09  Convergence criterion met
 Total energy in the final basis set =     -817.3907309787
   10    -817.3907437540      7.02e-09  Convergence criterion met
 Total energy in the final basis set =     -817.3907437540
   10    -817.3907490758      5.98e-09  Convergence criterion met
 Total energy in the final basis set =     -817.3907490758
    9    -817.3907502801      3.94e-09  Convergence criterion met
 Total energy in the final basis set =     -817.3907502801

             Standard Nuclear Orientation (Angstroms)
    I     Atom           X                Y                Z
 ----------------------------------------------------------------
    1      C       3.3278093309     0.1549184220     0.0197061014
    2      C       3.5840100688     1.4739341926     0.2913451814
    3      C       2.0222854207    -0.4802337064     0.1924027239
    4      H       2.0670209199    -1.5411033673     0.4605670450
    5      C       0.7766601913     0.0492912900    -0.0006998716
    6      H       0.6759817595     1.0821012056    -0.3421780826
    7      C      -0.4714639915    -0.6638212828     0.1758815106
    8      C      -1.6538932476     0.0179768277    -0.0275112049
    9      H      -1.5673012745     1.0745775498    -0.3092485745
   10      C      -2.9887266574    -0.4789105635     0.1000052558
   11      H      -3.1239699799    -1.5330755042     0.3555916565
   12      C      -4.1034926081     0.3025573882    -0.0790102263
   13      H      -3.9547781321     1.3599412888    -0.3276480288
   14      C      -5.4745921799    -0.1332261164     0.0361084256
   15      C      -6.4813029355     0.7873909220    -0.1561988463
   16      H      -6.1747228992     1.8160431897    -0.3821056939
   17      C      -7.9035245352     0.5665511760    -0.0936730808
   18      H      -8.2554811311    -0.4492986511     0.1113208655
   19      C      -8.8286209154     1.5411143220    -0.2791656760
   20      H      -9.8994344744     1.3360311758    -0.2269774122
   21      H      -8.5334965149     2.5748994057    -0.4861679683
   22      C      -0.4206759686    -2.1108729179     0.5828780010
   23      H      -1.4176894197    -2.5629778138     0.6610045221
   24      H       0.0770532246    -2.2336178396     1.5610290611
   25      H       0.1593467112    -2.7079060190    -0.1439038947
   26      C       2.5480141991     2.4383298752     0.8053806885
   27      H       1.7683145867     1.9425807865     1.4041586271
   28      H       3.0218446006     3.2149329959     1.4302113145
   29      H       2.0314478011     2.9732365432    -0.0157790565
   30      C      -5.7355469896    -1.5797256285     0.3645460819
   31      H      -6.8053395862    -1.8132138305     0.4261397624
   32      H      -5.2806984998    -1.8538725877     1.3326024101
   33      H      -5.2920948650    -2.2466689381    -0.3959125836
   34      C       4.9518004623     2.0910525785     0.1042849717
   35      H       5.1380438591     2.8059077572     0.9269418387
   36      H       4.9403824102     2.7132404246    -0.8174104605
   37      C       6.0826143224     1.0709456473     0.0187967314
   38      H       7.0161001118     1.5554551668    -0.3142135208
   39      H       6.2880045235     0.6595144678     1.0236596284
   40      C       5.6813070624    -0.0465004627    -0.9346314223
   41      H       6.5069976410    -0.7670183347    -1.0799354682
   42      H       5.4668083916     0.3895852190    -1.9299025777
   43      C       4.4336512098    -0.8163333262    -0.4513705127
   44      C       3.9356818264    -1.6661873215    -1.6389611818
   45      H       3.1095491752    -2.3397051437    -1.3583870818
   46      H       3.5808333812    -1.0213632046    -2.4614472532
   47      H       4.7626570670    -2.2898271253    -2.0241024523
   48      C       4.8236080173    -1.7596428185     0.7075126740
   49      H       5.2327951728    -1.1997446388     1.5646396877
   50      H       3.9554922353    -2.3341552052     1.0724219590
   51      H       5.5859613372    -2.4850228945     0.3700282169
 ----------------------------------------------------------------

    8    -817.3907505133      6.34e-09  Convergence criterion met
 Total energy in the final basis set =     -817.3907505133
 Final energy is   -817.390750513274
 **  OPTIMIZATION CONVERGED  **

                    Orbital Energies (a.u.)
 --------------------------------------------------------------

 Alpha MOs
 -- Occupied --
-10.207 -10.206 -10.205 -10.198 -10.195 -10.192 -10.191 -10.190
-10.190 -10.189 -10.188 -10.187 -10.185 -10.183 -10.182 -10.182
-10.181 -10.179 -10.176 -10.173 -10.170  -0.832  -0.815  -0.801
 -0.766  -0.764  -0.750  -0.726  -0.699  -0.667  -0.664  -0.656
 -0.654  -0.648  -0.609  -0.578  -0.553  -0.539  -0.517  -0.508
 -0.498  -0.480  -0.462  -0.452  -0.446  -0.432  -0.425  -0.416
 -0.408  -0.400  -0.397  -0.396  -0.393  -0.383  -0.381  -0.376
 -0.373  -0.368  -0.361  -0.356  -0.350  -0.345  -0.342  -0.335
 -0.328  -0.325  -0.320  -0.315  -0.313  -0.312  -0.298  -0.294
 -0.288  -0.276  -0.269  -0.236  -0.206  -0.167

          Ground-State Mulliken Net Atomic Charges

     Atom                 Charge (a.u.)
  ----------------------------------------
      1 C                     0.080503
      2 C                    -0.147957
      3 C                    -0.106742
      4 H                     0.086224
      5 C                    -0.112539
      6 H                     0.070804
      7 C                    -0.052501
      8 C                    -0.125630
      9 H                     0.066554
     10 C                    -0.058769
     11 H                     0.085263
     12 C                    -0.122160
     13 H                     0.068260
     14 C                    -0.045925
     15 C                    -0.132552
     16 H                     0.068215
     17 C                    -0.067963
     18 H                     0.084231
     19 C                    -0.216835
     20 H                     0.105471
     21 H                     0.103762
     22 C                    -0.245627
     23 H                     0.118153
     24 H                     0.126712
     25 H                     0.125533
     26 C                    -0.263001
     27 H                     0.136653
     28 H                     0.101437
     29 H                     0.128915
     30 C                    -0.249785
     31 H                     0.119747
     32 H                     0.126880
     33 H                     0.126204
     34 C                    -0.162909
     35 H                     0.097356
     36 H                     0.108619
     37 C                    -0.148623
     38 H                     0.093994
     39 H                     0.100946
     40 C                    -0.119600
     41 H                     0.089194
     42 H                     0.092020
     43 C                    -0.372319
     44 C                    -0.185308
     45 H                     0.103074
     46 H                     0.106902
     47 H                     0.101206
     48 C                    -0.211299
     49 H                     0.112254
     50 H                     0.110090
     51 H                     0.102871
  ----------------------------------------
  Sum of atomic charges =    -0.000000

                    Cartesian Multipole Moments
 -----------------------------------------------------------------
    Charge (ESU x 10^10)
                -0.0000
    Dipole Moment (Debye)
         X       0.9623      Y      -0.4285      Z       0.2262
       Tot       1.0774
    Quadrupole Moments (Debye-Ang)
        XX    -128.6525     XY       4.7082     YY    -125.8823
        XZ      -1.1379     YZ      -2.3986     ZZ    -138.6268

 Total job time:  18219.51s(wall), 206595.84s(cpu)
        *  Thank you very much for using Q-Chem.  Have a nice day.  *
