 Q-Chem 5.1, Q-Chem, Inc., Pleasanton, CA (2018)
 Q-Chem 5.1.1 for Intel X86 EM64T Linux

User input:
--------------------------------------------------------------
$molecule
0 1
C
C  1 1.375759
C  1 1.482187 2 123.722930
H  3 1.096979 1 114.961589 2 -138.769095 0
C  3 1.370472 1 127.333987 2 45.907661 0
H  5 1.095888 3 118.708006 1 0.436774 0
C  5 1.466331 3 126.164811 1 177.943075 0
C  7 1.381933 5 118.396709 3 -175.996808 0
H  8 1.098441 7 116.839966 5 -0.481295 0
C  8 1.453427 7 128.161393 5 179.049259 0
H  10 1.095936 8 117.920881 7 0.362953 0
C  10 1.362140 8 123.949197 7 -179.356451 0
H  12 1.092239 10 121.866526 8 179.822938 0
H  12 1.094756 10 121.652236 8 -0.018759 0
C  7 1.524517 5 118.353126 3 3.512182 0
H  15 1.098559 7 112.607764 5 176.474260 0
H  15 1.104848 7 110.774455 5 55.749706 0
H  15 1.105965 7 111.046791 5 -62.805188 0
C  2 1.525449 1 124.141774 3 1.626979 0
H  19 1.099018 2 112.759660 1 15.644061 0
H  19 1.106217 2 110.030440 1 136.679250 0
H  19 1.108390 2 111.633449 1 -105.631820 0
C  2 1.533210 1 122.752392 3 -178.843180 0
H  23 1.107300 2 108.965496 1 -140.645249 0
H  23 1.112223 2 108.501695 1 105.314771 0
C  23 1.546639 2 114.301356 1 -17.036891 0
H  26 1.105268 23 110.123139 2 166.224874 0
H  26 1.105694 23 109.657634 2 -76.870245 0
C  26 1.543465 23 109.744617 2 44.159956 0
H  29 1.106119 26 110.904580 23 177.252488 0
H  29 1.107860 26 108.759253 23 60.237515 0
C  29 1.563964 26 112.737110 23 -60.473699 0
C  32 1.565287 29 107.393362 26 167.248490 0
H  33 1.101901 32 112.057014 29 173.991643 0
H  33 1.103330 32 110.757636 29 -65.582404 0
H  33 1.105151 32 110.008096 29 53.965396 0
C  32 1.568428 29 109.839246 26 -74.799071 0
H  37 1.101961 32 111.479015 29 60.358524 0
H  37 1.103345 32 111.422331 29 -179.399482 0
H  37 1.105078 32 110.244407 29 -60.011788 0
$end

$rem
BASIS = VDZ
METHOD  = B97M-rV
JOBTYPE = OPT
$end
--------------------------------------------------------------

   15    -623.4540827332      5.62e-09  Convergence criterion met
 Total energy in the final basis set =     -623.4540827332
   12    -623.4570891777      4.56e-09  Convergence criterion met
 Total energy in the final basis set =     -623.4570891777
   11    -623.4571253202      5.84e-09  Convergence criterion met
 Total energy in the final basis set =     -623.4571253202
   11    -623.4574701901      5.57e-09  Convergence criterion met
 Total energy in the final basis set =     -623.4574701901
   11    -623.4575565386      4.71e-09  Convergence criterion met
 Total energy in the final basis set =     -623.4575565386
   10    -623.4575837299      4.71e-09  Convergence criterion met
 Total energy in the final basis set =     -623.4575837299
   11    -623.4576070762      2.73e-09  Convergence criterion met
 Total energy in the final basis set =     -623.4576070762
   10    -623.4576143611      9.93e-09  Convergence criterion met
 Total energy in the final basis set =     -623.4576143611
    9    -623.4576166897      4.86e-09  Convergence criterion met
 Total energy in the final basis set =     -623.4576166897

             Standard Nuclear Orientation (Angstroms)
    I     Atom           X                Y                Z
 ----------------------------------------------------------------
    1      C       1.2490436155     0.0902613084     0.0913897635
    2      C       1.6253315538     1.4038451568     0.1757872311
    3      C      -0.1151298519    -0.3836311734     0.3357850692
    4      H      -0.1842952364    -1.3641393351     0.8215790364
    5      C      -1.2845856142     0.2084588670    -0.0406548957
    6      H      -1.2505469415     1.1481330671    -0.5998002513
    7      C      -2.6155001435    -0.3217285401     0.2009835420
    8      C      -3.6988888407     0.3929311553    -0.2494241763
    9      H      -3.4886587676     1.3376846960    -0.7666698253
   10      C      -5.0963967093     0.0567908993    -0.1230245196
   11      H      -5.3540884438    -0.8873755449     0.3676471384
   12      C      -6.1040936090     0.8396677112    -0.5795217978
   13      H      -7.1521185466     0.5547073523    -0.4687789660
   14      H      -5.9020843110     1.7950682905    -1.0754236732
   15      C      -2.7369637204    -1.6272510366     0.9391430457
   16      H      -3.7784242913    -1.9505602747     1.0593813502
   17      H      -2.2925772189    -1.5561963214     1.9474279375
   18      H      -2.1963252605    -2.4338768461     0.4122881164
   19      C       0.6896847840     2.5232437632     0.5485479291
   20      H      -0.1725050313     2.1783026120     1.1380843664
   21      H       1.2260434841     3.2915907209     1.1329088468
   22      H       0.2869810988     3.0408484715    -0.3443009635
   23      C       3.0379864913     1.8616373050    -0.1126283759
   24      H       3.3059508063     2.6723340605     0.5897930725
   25      H       3.0582758171     2.3364175651    -1.1177246571
   26      C       4.0748202106     0.7431802135    -0.0576913903
   27      H       5.0372290475     1.0875744430    -0.4725901188
   28      H       4.2704781169     0.4701836662     0.9947810357
   29      C       3.5552226815    -0.4655357058    -0.8262493174
   30      H       4.3108596036    -1.2712985275    -0.8675492375
   31      H       3.3549535188    -0.1656612215    -1.8733234935
   32      C       2.2563579959    -1.0373212104    -0.2207513300
   33      C       1.6651285961    -2.0210012052    -1.2511442967
   34      H       0.7900394200    -2.5641610955    -0.8592323429
   35      H       1.3501476282    -1.4894189402    -2.1653210226
   36      H       2.4277244723    -2.7691730144    -1.5331216914
   37      C       2.5812633927    -1.8122016190     1.0751394306
   38      H       3.0674088320    -1.1646049340     1.8234912365
   39      H       1.6690011881    -2.2256508489     1.5376532403
   40      H       3.2564435307    -2.6591889194     0.8558872078
 ----------------------------------------------------------------

    8    -623.4576170301      6.17e-09  Convergence criterion met
 Total energy in the final basis set =     -623.4576170301
 Final energy is   -623.457617030094
 **  OPTIMIZATION CONVERGED  **

                    Orbital Energies (a.u.)
 --------------------------------------------------------------

 Alpha MOs
 -- Occupied --
-10.207 -10.205 -10.197 -10.194 -10.191 -10.189 -10.188 -10.187
-10.185 -10.182 -10.181 -10.181 -10.179 -10.175 -10.173 -10.170
 -0.832  -0.806  -0.766  -0.762  -0.740  -0.702  -0.665  -0.656
 -0.654  -0.648  -0.598  -0.564  -0.544  -0.520  -0.501  -0.478
 -0.460  -0.443  -0.437  -0.422  -0.416  -0.402  -0.397  -0.393
 -0.388  -0.378  -0.375  -0.369  -0.367  -0.359  -0.347  -0.344
 -0.335  -0.327  -0.324  -0.318  -0.313  -0.304  -0.295  -0.288
 -0.275  -0.266  -0.221  -0.178

          Ground-State Mulliken Net Atomic Charges

     Atom                 Charge (a.u.)
  ----------------------------------------
      1 C                     0.070784
      2 C                    -0.144148
      3 C                    -0.103795
      4 H                     0.087530
      5 C                    -0.110919
      6 H                     0.072070
      7 C                    -0.054388
      8 C                    -0.137964
      9 H                     0.065992
     10 C                    -0.064974
     11 H                     0.083226
     12 C                    -0.217541
     13 H                     0.104627
     14 H                     0.102232
     15 C                    -0.246925
     16 H                     0.119499
     17 H                     0.126536
     18 H                     0.125621
     19 C                    -0.261831
     20 H                     0.137084
     21 H                     0.102422
     22 H                     0.125305
     23 C                    -0.162240
     24 H                     0.095954
     25 H                     0.108232
     26 C                    -0.150028
     27 H                     0.094168
     28 H                     0.101340
     29 C                    -0.119035
     30 H                     0.088780
     31 H                     0.092333
     32 C                    -0.371484
     33 C                    -0.183055
     34 H                     0.102964
     35 H                     0.106632
     36 H                     0.101184
     37 C                    -0.211064
     38 H                     0.111773
     39 H                     0.109987
     40 H                     0.103116
  ----------------------------------------
  Sum of atomic charges =    -0.000000

                    Cartesian Multipole Moments
 -----------------------------------------------------------------
    Charge (ESU x 10^10)
                -0.0000
    Dipole Moment (Debye)
         X       0.7657      Y      -0.1010      Z       0.1910
       Tot       0.7956
    Quadrupole Moments (Debye-Ang)
        XX    -100.3029     XY       2.1488     YY     -98.6159
        XZ      -1.1566     YZ      -2.9489     ZZ    -104.7567

 Total job time:  9014.85s(wall), 67711.11s(cpu)
        *  Thank you very much for using Q-Chem.  Have a nice day.  *
