 Q-Chem 5.1, Q-Chem, Inc., Pleasanton, CA (2018)
 Q-Chem 5.1.1 for Intel X86 EM64T Linux

User input:
--------------------------------------------------------------
$molecule
2 5
Fe        -1.43864       -2.96430        2.23396
O         -1.74302       -1.64056        1.45548
O         -1.44035       -0.24074        1.79786
H          2.37381        2.77406       -0.19332
H          2.59922        2.99747        1.57672
C          2.03387        2.43600        0.80611
H          0.96266        2.69611        0.91446
H          4.32172        1.78548       -0.80961
H          4.32790        1.34859        1.73210
C          4.51529        0.77639       -0.38784
C          2.29995        0.88197        1.01616
C          3.86964        0.62416        1.02635
H          5.61614        0.63915       -0.32621
H         -2.64402       -1.21071       -0.74944
H          2.31222        0.94976        3.22171
C          1.75441        0.40891        2.43133
C          1.60333        0.05150       -0.15164
H          4.18367       -0.15340       -2.41372
H          0.67736        0.61901        2.56942
C          3.92705       -0.31822       -1.33605
C          0.20104       -0.13078       -0.27835
C         -2.78969       -0.21542       -1.22074
C          2.41459       -0.54757       -1.23729
H         -2.32017       -0.23438       -2.23065
H          1.46990       -0.73527       -3.18761
H         -3.87674       -0.05195       -1.35786
H          4.07289       -0.39734        1.41510
C          1.83517       -1.41453       -2.37659
H          0.99493       -2.06445       -2.05885
C         -0.92392        0.57107        0.49634
H          1.92941       -0.67748        2.56934
H          4.38088       -1.32119       -1.09010
C         -2.17486        0.89390       -0.33943
H          2.64108       -2.04058       -2.81356
H         -4.46353        2.01322       -1.57518
C         -2.72356        2.18322       -0.19791
C         -3.91835        2.68518       -0.88245
H         -2.21187        2.90153        0.47954
C         -4.38141        3.97974       -0.68279
H         -5.29074        4.35112       -1.20202
H         -3.86437        4.68745        0.00024
H         -0.16697       -0.77545       -1.10410
H         -0.55501        1.47752        1.03715

$end

$rem
JOBTYPE         freq
METHOD        BLYP
BASIS           STO-3G
SCF_MAX_CYCLES  250
SYMMETRY        false
SYM_IGNORE      true
$end

--------------------------------------------------------------

   63   -2013.9906350249      4.47e-09  Convergence criterion met
 Total energy in the final basis set =    -2013.9906350249
 Frequency:        28.27                  30.61                  39.86
 Force Cnst:      0.0021                 0.0022                 0.0074
 Red. Mass:       4.5068                 4.0415                 7.8901
 IR Intens:        0.138                  1.430                  0.298
 Frequency:        53.89                  66.71                  79.35
 Force Cnst:      0.0053                 0.0136                 0.0121
 Red. Mass:       3.0728                 5.1992                 3.2482
 IR Intens:        0.344                  0.657                  0.970
 Frequency:        96.11                 115.45                 126.55
 Force Cnst:      0.0103                 0.0494                 0.0451
 Red. Mass:       1.9016                 6.2869                 4.7841
 IR Intens:        0.768                  2.933                  1.188
 Frequency:       143.59                 149.88                 160.91
 Force Cnst:      0.0173                 0.0324                 0.0280
 Red. Mass:       1.4279                 2.4481                 1.8340
 IR Intens:        3.701                  1.678                  2.016
 Frequency:       166.50                 176.93                 182.78
 Force Cnst:      0.0229                 0.0459                 0.0372
 Red. Mass:       1.4040                 2.4863                 1.8916
 IR Intens:        2.725                  7.594                  1.034
 Frequency:       194.77                 210.98                 223.26
 Force Cnst:      0.0811                 0.0566                 0.0909
 Red. Mass:       3.6264                 2.1591                 3.0945
 IR Intens:        0.380                  3.559                 14.875
 Frequency:       250.88                 269.80                 277.48
 Force Cnst:      0.0626                 0.0565                 0.1140
 Red. Mass:       1.6893                 1.3180                 2.5129
 IR Intens:        0.865                  0.335                  0.955
 Frequency:       296.99                 319.31                 334.24
 Force Cnst:      0.1531                 0.1944                 0.1876
 Red. Mass:       2.9458                 3.2361                 2.8500
 IR Intens:        9.445                  1.910                  4.453
 Frequency:       367.35                 378.45                 397.70
 Force Cnst:      0.2220                 0.1952                 0.2619
 Red. Mass:       2.7928                 2.3130                 2.8102
 IR Intens:        0.630                  1.919                  0.595
 Frequency:       421.70                 449.15                 453.29
 Force Cnst:      0.2639                 0.3678                 0.3565
 Red. Mass:       2.5187                 3.0943                 2.9452
 IR Intens:        1.635                  1.368                  0.727
 Frequency:       477.50                 506.72                 557.15
 Force Cnst:      0.5212                 0.5205                 0.5264
 Red. Mass:       3.8801                 3.4405                 2.8783
 IR Intens:        0.898                 30.212                 17.647
 Frequency:       576.21                 600.91                 616.53
 Force Cnst:      0.5501                 0.7657                 0.3108
 Red. Mass:       2.8121                 3.5992                 1.3878
 IR Intens:        2.595                  6.634                  0.914
 Frequency:       636.55                 681.16                 705.90
 Force Cnst:      0.7774                 1.2572                 1.2419
 Red. Mass:       3.2565                 4.5991                 4.2302
 IR Intens:        1.695                  9.494                  6.280
 Frequency:       757.21                 796.20                 822.43
 Force Cnst:      2.8228                 0.7472                 1.1631
 Red. Mass:       8.3559                 2.0005                 2.9186
 IR Intens:       21.500                 43.478                 23.091
 Frequency:       861.38                 872.30                 892.66
 Force Cnst:      1.1911                 0.9586                 0.8084
 Red. Mass:       2.7245                 2.1382                 1.7220
 IR Intens:        0.730                  5.112                  6.894
 Frequency:       913.22                 919.17                 973.51
 Force Cnst:      0.7302                 1.0175                 1.1841
 Red. Mass:       1.4861                 2.0441                 2.1206
 IR Intens:        2.852                  5.777                 40.191
 Frequency:       976.77                 982.40                 985.39
 Force Cnst:      0.9615                 0.9148                 0.8060
 Red. Mass:       1.7104                 1.6088                 1.4089
 IR Intens:        4.081                  2.693                  7.059
 Frequency:       999.54                1001.97                1008.75
 Force Cnst:      2.8507                 0.8468                 0.6793
 Red. Mass:       4.8428                 1.4315                 1.1330
 IR Intens:        7.660                  8.128                 19.064
 Frequency:      1018.72                1052.53                1061.36
 Force Cnst:      0.9833                 1.2466                 1.0864
 Red. Mass:       1.6081                 1.9098                 1.6369
 IR Intens:        2.150                 41.233                  6.353
 Frequency:      1070.46                1083.85                1095.87
 Force Cnst:      0.9425                 0.9787                 1.2129
 Red. Mass:       1.3961                 1.4140                 1.7141
 IR Intens:        2.083                 10.652                  4.744
 Frequency:      1108.84                1115.42                1175.62
 Force Cnst:      2.0326                 1.3095                 1.1778
 Red. Mass:       2.8058                 1.7864                 1.4464
 IR Intens:       30.536                 26.786                  6.525
 Frequency:      1194.01                1222.07                1233.22
 Force Cnst:      1.7391                 1.7078                 2.3235
 Red. Mass:       2.0704                 1.9408                 2.5931
 IR Intens:       14.657                 68.596                 17.404
 Frequency:      1255.85                1260.01                1261.70
 Force Cnst:      1.7248                 1.4104                 1.4473
 Red. Mass:       1.8561                 1.5078                 1.5431
 IR Intens:       15.642                 36.598                 78.509
 Frequency:      1273.04                1291.68                1302.69
 Force Cnst:      1.7279                 1.7639                 1.5469
 Red. Mass:       1.8097                 1.7944                 1.5471
 IR Intens:       46.222                 44.403                 71.719
 Frequency:      1328.82                1331.56                1361.20
 Force Cnst:      1.5769                 1.4953                 2.7266
 Red. Mass:       1.5157                 1.4313                 2.4976
 IR Intens:      269.356                 23.635                682.790
 Frequency:      1394.90                1399.02                1429.04
 Force Cnst:      1.8290                 2.0133                 1.7836
 Red. Mass:       1.5954                 1.7458                 1.4824
 IR Intens:      196.901                 45.598                  9.173
 Frequency:      1436.71                1458.04                1469.76
 Force Cnst:      2.3560                 1.8331                 1.5047
 Red. Mass:       1.9372                 1.4635                 1.1823
 IR Intens:      120.145                  1.809                 29.797
 Frequency:      1477.02                1503.07                1504.03
 Force Cnst:      2.4033                 1.5637                 1.6598
 Red. Mass:       1.8697                 1.1747                 1.2454
 IR Intens:        6.322                 78.007                 10.483
 Frequency:      1514.81                1528.32                1539.74
 Force Cnst:      1.6203                 2.8197                 1.9296
 Red. Mass:       1.1984                 2.0489                 1.3814
 IR Intens:        1.795                232.687                 86.103
 Frequency:      1561.95                1566.83                1600.77
 Force Cnst:      3.0323                 1.5744                 1.6633
 Red. Mass:       2.1095                 1.0885                 1.1017
 IR Intens:      126.032                  4.546                 10.518
 Frequency:      1601.13                1605.89                1609.04
 Force Cnst:      1.6388                 1.6854                 2.4821
 Red. Mass:       1.0850                 1.1092                 1.6272
 IR Intens:       17.367                 11.150                660.927
 Frequency:      1614.75                1622.94                1626.53
 Force Cnst:      1.6683                 2.1035                 1.6813
 Red. Mass:       1.0860                 1.3555                 1.0786
 IR Intens:        2.416                487.381                 44.794
 Frequency:      1629.08                1635.92                1646.71
 Force Cnst:      1.6595                 1.6641                 1.6828
 Red. Mass:       1.0613                 1.0554                 1.0533
 IR Intens:       11.812                  7.555                  8.497
 Frequency:      3117.86                3179.57                3202.09
 Force Cnst:      6.1129                 6.2065                 6.2744
 Red. Mass:       1.0673                 1.0420                 1.0386
 IR Intens:      346.733                109.283                 17.236
 Frequency:      3225.79                3228.36                3232.86
 Force Cnst:      6.3586                 6.3700                 6.7262
 Red. Mass:       1.0371                 1.0373                 1.0923
 IR Intens:        4.555                  2.561                 37.025
 Frequency:      3257.34                3270.66                3275.56
 Force Cnst:      6.6588                 6.7057                 6.8756
 Red. Mass:       1.0652                 1.0640                 1.0877
 IR Intens:        2.032                  7.855                 11.229
 Frequency:      3284.12                3322.90                3326.24
 Force Cnst:      6.7555                 7.1187                 7.1346
 Red. Mass:       1.0631                 1.0943                 1.0945
 IR Intens:      245.328                  9.759                 10.078
 Frequency:      3338.42                3349.33                3359.52
 Force Cnst:      7.2439                 7.2083                 7.3762
 Red. Mass:       1.1032                 1.0906                 1.1092
 IR Intens:        2.247                 10.404                  1.035
 Frequency:      3369.48                3370.54                3380.97
 Force Cnst:      7.3362                 7.4233                 7.4492
 Red. Mass:       1.0967                 1.1090                 1.1061
 IR Intens:       16.570                  0.239                  2.385
 Frequency:      3385.02                3385.36                3387.10
 Force Cnst:      7.4801                 7.4730                 7.4647
 Red. Mass:       1.1080                 1.1067                 1.1043
 IR Intens:        6.922                  0.807                  6.553
 Frequency:      3391.73                3399.02                3440.46
 Force Cnst:      7.5017                 7.5329                 7.8181
 Red. Mass:       1.1068                 1.1066                 1.1210
 IR Intens:        1.234                  1.985                 24.458

 STANDARD THERMODYNAMIC QUANTITIES AT   298.15 K  AND     1.00 ATM

   This Molecule has  0 Imaginary Frequencies
   Zero point vibrational energy:      238.937 kcal/mol

   Atom    1 Element Fe Has Mass   55.93490
   Atom    2 Element O  Has Mass   15.99491
   Atom    3 Element O  Has Mass   15.99491
   Atom    4 Element H  Has Mass    1.00783
   Atom    5 Element H  Has Mass    1.00783
   Atom    6 Element C  Has Mass   12.00000
   Atom    7 Element H  Has Mass    1.00783
   Atom    8 Element H  Has Mass    1.00783
   Atom    9 Element H  Has Mass    1.00783
   Atom   10 Element C  Has Mass   12.00000
   Atom   11 Element C  Has Mass   12.00000
   Atom   12 Element C  Has Mass   12.00000
   Atom   13 Element H  Has Mass    1.00783
   Atom   14 Element H  Has Mass    1.00783
   Atom   15 Element H  Has Mass    1.00783
   Atom   16 Element C  Has Mass   12.00000
   Atom   17 Element C  Has Mass   12.00000
   Atom   18 Element H  Has Mass    1.00783
   Atom   19 Element H  Has Mass    1.00783
   Atom   20 Element C  Has Mass   12.00000
   Atom   21 Element C  Has Mass   12.00000
   Atom   22 Element C  Has Mass   12.00000
   Atom   23 Element C  Has Mass   12.00000
   Atom   24 Element H  Has Mass    1.00783
   Atom   25 Element H  Has Mass    1.00783
   Atom   26 Element H  Has Mass    1.00783
   Atom   27 Element H  Has Mass    1.00783
   Atom   28 Element C  Has Mass   12.00000
   Atom   29 Element H  Has Mass    1.00783
   Atom   30 Element C  Has Mass   12.00000
   Atom   31 Element H  Has Mass    1.00783
   Atom   32 Element H  Has Mass    1.00783
   Atom   33 Element C  Has Mass   12.00000
   Atom   34 Element H  Has Mass    1.00783
   Atom   35 Element H  Has Mass    1.00783
   Atom   36 Element C  Has Mass   12.00000
   Atom   37 Element C  Has Mass   12.00000
   Atom   38 Element H  Has Mass    1.00783
   Atom   39 Element C  Has Mass   12.00000
   Atom   40 Element H  Has Mass    1.00783
   Atom   41 Element H  Has Mass    1.00783
   Atom   42 Element H  Has Mass    1.00783
   Atom   43 Element H  Has Mass    1.00783
   Molecular Mass:   304.112640 amu
   Principal axes and moments of inertia in amu*Bohr^2:
                             1           2           3
    Eigenvalues --     6169.60393  8812.99745 11840.20652
          X               0.99547     0.00546     0.09491
          Y              -0.04923     0.88365     0.46556
          Z              -0.08132    -0.46812     0.87991
   Rotational Symmetry Number is   1
   The Molecule is an Asymmetric Top
   Translational Enthalpy:        0.889 kcal/mol
   Rotational Enthalpy:           0.889 kcal/mol
   Vibrational Enthalpy:        251.293 kcal/mol
   gas constant (RT):             0.592 kcal/mol
   Translational Entropy:        43.033  cal/mol.K
   Rotational Entropy:           34.819  cal/mol.K
   Vibrational Entropy:          82.762  cal/mol.K

   Total Enthalpy:              253.663 kcal/mol
   Total Entropy:               160.614  cal/mol.K

 Total job time:  1712.31s(wall), 14041.55s(cpu)
        *  Thank you very much for using Q-Chem.  Have a nice day.  *
 Q-Chem 5.1, Q-Chem, Inc., Pleasanton, CA (2018)
 Q-Chem 5.1.1 for Intel X86 EM64T Linux

User input:
--------------------------------------------------------------

$rem
JOBTYPE              ts
SCF_GUESS            read
GEOM_OPT_DMAX        100
GEOM_OPT_MAX_CYCLES  1500
METHOD               BLYP
BASIS                STO-3G
MAX_SCF_CYCLES       250
GEOM_OPT_HESSIAN     read
SYMMETRY             false
SYM_IGNORE           true
GEOM_OPT_CHARAC      true
$end

$molecule
read
$end
--------------------------------------------------------------

    3   -2013.9906350240      6.28e-09  Convergence criterion met
 Total energy in the final basis set =    -2013.9906350240
   12   -2013.9906282951      8.80e-09  Convergence criterion met
 Total energy in the final basis set =    -2013.9906282951
   13   -2013.9906095997      4.44e-09  Convergence criterion met
 Total energy in the final basis set =    -2013.9906095997
   14   -2013.9905793349      4.07e-09  Convergence criterion met
 Total energy in the final basis set =    -2013.9905793349
   14   -2013.9905504693      6.68e-09  Convergence criterion met
 Total energy in the final basis set =    -2013.9905504693
   13   -2013.9905156526      9.23e-09  Convergence criterion met
 Total energy in the final basis set =    -2013.9905156526
   13   -2013.9904796418      7.07e-09  Convergence criterion met
 **  OPTIMIZATION CONVERGED  **
 Total energy in the final basis set =    -2013.9893998133
   14   -2013.9893999234      9.30e-09  Convergence criterion met
 Total energy in the final basis set =    -2013.9893999234
   13   -2013.9894031688      6.44e-09  Convergence criterion met
 Total energy in the final basis set =    -2013.9894031688
   15   -2013.9894030750      7.78e-09  Convergence criterion met
 Total energy in the final basis set =    -2013.9894030750
   15   -2013.9893951265      5.20e-09  Convergence criterion met
 Total energy in the final basis set =    -2013.9893951265
   15   -2013.9893949499      3.36e-09  Convergence criterion met
 Total energy in the final basis set =    -2013.9893949499
   13   -2013.9894030849      9.99e-09  Convergence criterion met
 Total energy in the final basis set =    -2013.9894030849
   15   -2013.9894031220      8.18e-09  Convergence criterion met
 Total energy in the final basis set =    -2013.9894031220

             Standard Nuclear Orientation (Angstroms)
    I     Atom           X                Y                Z
 ----------------------------------------------------------------
    1      Fe     -1.4820341657    -2.9788380568     2.1439963168
    2      O      -1.7853366424    -1.6446401458     1.3823597097
    3      O      -1.4781960591    -0.2524571185     1.7538592739
    4      H       2.3087889915     2.7809071461    -0.1799662448
    5      H       2.6005136424     2.9839226156     1.5829395671
    6      C       2.0075252789     2.4303867951     0.8275308271
    7      H       0.9411725212     2.6883732067     0.9798874157
    8      H       4.2957230611     1.8672059485    -0.7595022855
    9      H       4.3101926023     1.3094781677     1.7462848350
   10      C       4.4893289611     0.8355864687    -0.3972895455
   11      C       2.2812296855     0.8749857470     1.0112731969
   12      C       3.8500005410     0.6167289165     1.0108313893
   13      H       5.5906490186     0.6967786508    -0.3482948756
   14      H      -2.6690391471    -1.1580272805    -0.8190403599
   15      H       2.2923009589     0.9084378337     3.2176868178
   16      C       1.7393257687     0.3746526098     2.4189435273
   17      C       1.5882445178     0.0461110789    -0.1616443490
   18      H       4.0146457592     0.1316167941    -2.4714284108
   19      H       0.6604943107     0.5742094461     2.5592865987
   20      C       3.8983425953    -0.2027955656    -1.4051924750
   21      C       0.1875154731    -0.1282877160    -0.3007655722
   22      C      -2.7988474193    -0.1517319880    -1.2713697434
   23      C       2.4189515184    -0.5673043414    -1.2251854596
   24      H      -2.3217613560    -0.1559978489    -2.2779342410
   25      H       0.8611157828    -1.5321907055    -2.5133026685
   26      H      -3.8826404446     0.0281306470    -1.4133376132
   27      H       4.0527116153    -0.4214403683     1.3543536817
   28      C       1.9198462262    -1.6496213918    -2.2074579583
   29      H       2.0212444430    -2.6423089722    -1.6991982682
   30      C      -0.9370907662     0.5755445816     0.4748182095
   31      H       1.9233205476    -0.7122054075     2.5407440962
   32      H       4.4599238370    -1.1766032426    -1.3654875444
   33      C      -2.1767083169     0.9322041285    -0.3641870965
   34      H       2.5653561609    -1.6703514815    -3.1096965982
   35      H      -4.4414557062     2.1052426795    -1.5946887970
   36      C      -2.7085379030     2.2260151237    -0.2029313735
   37      C      -3.8907184950     2.7573495776    -0.8874921226
   38      H      -2.1918640521     2.9250326621     0.4906633035
   39      C      -4.3351057509     4.0554792509    -0.6696587605
   40      H      -5.2351440693     4.4495634891    -1.1883333774
   41      H      -3.8115698474     4.7437769108     0.0280582106
   42      H      -0.1812581047    -0.7412838580    -1.1493496746
   43      H      -0.5602455722     1.4665550131     1.0352784385
 ----------------------------------------------------------------

                    Orbital Energies (a.u.)
 --------------------------------------------------------------
 Requested basis set is STO-3G
 There are 65 shells and 132 basis functions

 Alpha MOs
 -- Occupied --
******* -29.654 -26.209 -26.207 -26.202 -18.970 -18.951 -10.121
-10.118 -10.091 -10.075 -10.052 -10.043 -10.042 -10.036 -10.032
-10.022 -10.016 -10.016  -9.988  -9.980  -9.980  -9.978  -3.842
 -2.684  -2.680  -2.672  -1.264  -1.078  -1.007  -0.968  -0.937
 -0.920  -0.901  -0.872  -0.853  -0.834  -0.817  -0.805  -0.789
 -0.743  -0.736  -0.725  -0.702  -0.690  -0.677  -0.649  -0.643
 -0.634  -0.626  -0.620  -0.607  -0.602  -0.594  -0.583  -0.578
 -0.576  -0.571  -0.566  -0.565  -0.558  -0.554  -0.549  -0.541
 -0.537  -0.532  -0.516  -0.513  -0.510  -0.510  -0.507  -0.500
 -0.499  -0.488  -0.481  -0.478  -0.472  -0.463  -0.456  -0.450
 -0.418  -0.396

 Beta MOs
 -- Occupied --
******* -29.617 -26.177 -26.176 -26.176 -18.970 -18.953 -10.121
-10.118 -10.090 -10.075 -10.053 -10.043 -10.042 -10.036 -10.032
-10.022 -10.018 -10.016  -9.988  -9.980  -9.980  -9.978  -3.646
 -2.499  -2.477  -2.473  -1.265  -1.078  -1.006  -0.969  -0.937
 -0.920  -0.903  -0.872  -0.853  -0.835  -0.817  -0.805  -0.789
 -0.741  -0.737  -0.725  -0.701  -0.688  -0.677  -0.649  -0.641
 -0.633  -0.623  -0.620  -0.606  -0.595  -0.593  -0.579  -0.578
 -0.575  -0.570  -0.566  -0.565  -0.558  -0.551  -0.542  -0.541
 -0.533  -0.523  -0.516  -0.512  -0.505  -0.500  -0.483  -0.478
 -0.471  -0.462  -0.456  -0.442  -0.427  -0.401

          Ground-State Mulliken Net Atomic Charges

     Atom                 Charge (a.u.)    Spin (a.u.)
  --------------------------------------------------------
      1 Fe                    0.634561       4.384284
      2 O                    -0.189982      -0.122187
      3 O                     0.047762      -0.015589
      4 H                     0.089684      -0.000018
      5 H                     0.108803      -0.000015
      6 C                    -0.213009       0.000437
      7 H                     0.069384      -0.000012
      8 H                     0.097286      -0.000015
      9 H                     0.105567       0.000016
     10 C                    -0.129803       0.000059
     11 C                     0.029711       0.000089
     12 C                    -0.130039      -0.000152
     13 H                     0.115360      -0.000030
     14 H                     0.092012      -0.002489
     15 H                     0.109793      -0.000139
     16 C                    -0.215694      -0.000581
     17 C                     0.021603      -0.002496
     18 H                     0.141199       0.001062
     19 H                     0.067154       0.000055
     20 C                    -0.133707      -0.002092
     21 C                    -0.011864       0.015552
     22 C                    -0.223909       0.002787
     23 C                     0.142624       0.036227
     24 H                     0.112240      -0.007505
     25 H                     0.113611       0.000646
     26 H                     0.118907      -0.000591
     27 H                     0.084535      -0.000029
     28 C                    -0.222884      -0.002282
     29 H                     0.139504       0.001570
     30 C                     0.001279       0.018520
     31 H                     0.081209       0.000024
     32 H                     0.140538       0.002109
     33 C                     0.032508      -0.105122
     34 H                     0.136368       0.000368
     35 H                     0.121767       0.000704
     36 C                    -0.027601      -0.044557
     37 C                    -0.043673      -0.015242
     38 H                     0.113230       0.001892
     39 C                    -0.057373      -0.159488
     40 H                     0.145528       0.006711
     41 H                     0.129045       0.006643
     42 H                     0.119413      -0.000515
     43 H                     0.134958       0.001361
  --------------------------------------------------------
  Sum of atomic charges =     1.997606

                    Cartesian Multipole Moments
 -----------------------------------------------------------------
    Charge (ESU x 10^10)
                 9.5949
    Dipole Moment (Debye)
         X      -2.5429      Y      -0.6138      Z       0.0818
       Tot       2.6172
    Quadrupole Moments (Debye-Ang)
        XX     -35.7094     XY     -16.8144     YY     -62.3563
        XZ      -8.6139     YZ      -9.8624     ZZ     -89.9347

 Total job time:  526.52s(wall), 6267.73s(cpu)
        *  Thank you very much for using Q-Chem.  Have a nice day.  *
