 Q-Chem 5.1, Q-Chem, Inc., Pleasanton, CA (2018)
 Q-Chem 5.1.1 for Intel X86 EM64T Linux

User input:
--------------------------------------------------------------
$molecule
0 1
C          0.93080        0.85677       -0.83010
C          0.12511        0.62976        0.22399
C          0.28990       -0.60291        1.03962
C         -0.44746       -0.95295        2.12320
C         -0.10737       -2.27046        2.80682
C          0.09939       -2.23385        4.28486
H         -0.63611        1.35356        0.46624
H          1.08465       -1.27775        0.72909
C          1.41387       -2.87595        4.75649
C          2.56434       -2.12077        4.68374
C          3.89798       -2.60441        5.22044
C          3.77243       -3.76820        6.19688
H          4.40905       -1.78849        5.77676
H          4.53558       -2.87365        4.35030
C          2.90095       -4.82797        5.56355
H          3.32670       -3.43131        7.15531
H          4.78690       -4.16598        6.41578
C          1.44257       -4.31935        5.34680
H          2.89741       -5.75435        6.17974
H          3.37560       -5.08630        4.58845
C          2.62337       -0.72934        4.08181
H          1.66625       -0.34132        3.69655
H          3.34482       -0.72679        3.23799
H          2.97369       -0.01039        4.85180
C          0.67432       -4.32202        6.68849
H          1.10879       -3.59838        7.40768
H          0.69785       -5.33170        7.15222
H         -0.39034       -4.04703        6.54846
C          0.79936       -5.36167        4.39585
H          1.30727       -5.35278        3.40723
H         -0.27981       -5.21265        4.22736
H          0.89160       -6.38416        4.82347
C          0.84139        2.06667       -1.70638
C          1.72340        2.15801       -2.73345
C          1.81042        3.26707       -3.71920
C          2.72757        3.24193       -4.69046
H          1.14872        4.12136       -3.69068
H          2.44238        1.35112       -2.86202
H          3.42816        2.41745       -4.78498
H          2.78334        4.05650       -5.40565
H          1.69436        0.11655       -1.06024
C         -1.59426       -0.12001        2.66954
H         -1.80616        0.80443        2.10887
H         -1.38855        0.18881        3.71273
H         -2.52431       -0.72520        2.65471
C         -0.21150        3.11883       -1.41388
H         -0.21607        3.98007       -2.10150
H         -0.05302        3.52274       -0.39199
H         -1.21893        2.65577       -1.47010
O         -1.03649       -3.04357        4.37674
H         -0.13268       -1.28056        4.80255
O         -1.24520       -3.03834        3.05451
H          0.65290       -2.89877        2.28834
$end

$rem
BASIS = 6-31G(d,p)
METHOD  = BLYP
JOBTYPE = OPT
$end
--------------------------------------------------------------

   16    -968.0759742576      4.09e-09  Convergence criterion met
 Total energy in the final basis set =     -968.0759742576
   13    -968.1088449557      3.76e-09  Convergence criterion met
 Total energy in the final basis set =     -968.1088449557
   13    -968.1200591461      3.82e-09  Convergence criterion met
 Total energy in the final basis set =     -968.1200591461
   13    -968.1225407293      4.30e-09  Convergence criterion met
 Total energy in the final basis set =     -968.1225407293
   13    -968.1233560712      5.40e-09  Convergence criterion met
 Total energy in the final basis set =     -968.1233560712
   13    -968.1236451636      3.14e-09  Convergence criterion met
 Total energy in the final basis set =     -968.1236451636
   13    -968.1236370670      4.16e-09  Convergence criterion met
 Total energy in the final basis set =     -968.1236370670
   12    -968.1239472438      8.42e-09  Convergence criterion met
   11    -968.1241433737      2.47e-09  Convergence criterion met
 Total energy in the final basis set =     -968.1241433737
   11    -968.1241551571      3.35e-09  Convergence criterion met
 Total energy in the final basis set =     -968.1241551571
   11    -968.1241632082      8.45e-09  Convergence criterion met
 Total energy in the final basis set =     -968.1241632082
   11    -968.1241750433      6.46e-09  Convergence criterion met
 Total energy in the final basis set =     -968.1241750433
   10    -968.1241818418      4.75e-09  Convergence criterion met
 Total energy in the final basis set =     -968.1241818418
   10    -968.1241867473      7.56e-09  Convergence criterion met
 Total energy in the final basis set =     -968.1241867473

             Standard Nuclear Orientation (Angstroms)
    I     Atom           X                Y                Z
 ----------------------------------------------------------------
    1      C       3.7430300072     0.0913008572    -0.4973585677
    2      C       2.7925558479     0.8644467261     0.1218818237
    3      C       1.4165570445     0.9248797982    -0.3169015097
    4      C       0.3915905339     1.6403307561     0.2470749884
    5      C      -0.9876560331     1.4891013260    -0.3327706856
    6      C      -2.1859337751     1.0775328687     0.5867445073
    7      H       3.0763964507     1.4564286587     0.9960341306
    8      H       1.1754575494     0.3131516264    -1.1962216708
    9      C      -2.9120048074    -0.2484166860     0.3739041293
   10      C      -2.5415841734    -1.3125342217     1.1443193868
   11      C      -3.2196536934    -2.6764438219     1.0653346091
   12      C      -4.5717730693    -2.6507943610     0.3326310916
   13      H      -3.3362212954    -3.0725726231     2.0918595395
   14      H      -2.5307157936    -3.3851001306     0.5615095864
   15      C      -4.4264873803    -1.8255252122    -0.9560606145
   16      H      -5.3398611243    -2.2027460381     0.9860011726
   17      H      -4.9075496212    -3.6772822199     0.1076130307
   18      C      -4.0413020365    -0.3353249660    -0.6931080381
   19      H      -5.3584215324    -1.8469497417    -1.5467891478
   20      H      -3.6465695833    -2.2928518086    -1.5857301507
   21      C      -1.4076919365    -1.2886704834     2.1650680630
   22      H      -0.6956621951    -0.4651365184     2.0368575087
   23      H      -0.8283784500    -2.2255786864     2.0953672300
   24      H      -1.8048393426    -1.2479321014     3.1967407324
   25      C      -5.3014130549     0.4436381750    -0.1946306562
   26      H      -5.6968752589     0.0260034309     0.7449278821
   27      H      -6.1010616414     0.3897536202    -0.9534251907
   28      H      -5.0702694276     1.5042082718    -0.0241189608
   29      C      -3.6024604992     0.2675834562    -2.0643133951
   30      H      -2.7125278351    -0.2493176137    -2.4614519580
   31      H      -3.3885260328     1.3410300947    -1.9949779196
   32      H      -4.4140389042     0.1277901666    -2.7985871090
   33      C       5.1415887716    -0.0343798704    -0.1200912777
   34      C       5.9405380471    -0.8916053406    -0.8485119016
   35      C       7.3480830602    -1.1798126016    -0.6611751614
   36      C       8.0489257540    -2.0556263475    -1.4262643751
   37      H       7.8777421379    -0.6612950593     0.1446287420
   38      H       5.4617972811    -1.4333060958    -1.6742907676
   39      H       7.5776191237    -2.6065527172    -2.2454455955
   40      H       9.1096697120    -2.2460813968    -1.2527503217
   41      H       3.4282220545    -0.5024325317    -1.3650523325
   42      C       0.5410732775     2.5659657426     1.4401702305
   43      H       1.5758525491     2.9103368222     1.5724605522
   44      H       0.2327967136     2.0771958059     2.3831014438
   45      H      -0.1045435333     3.4473963041     1.3093695248
   46      C       5.6485521823     0.7804445590     1.0593613366
   47      H       6.7169538905     0.6252637953     1.2532469968
   48      H       5.1006082331     0.5200310606     1.9810336655
   49      H       5.4918798150     1.8588872554     0.8879486035
   50      O      -2.9146346497     2.2916649336     0.1542897824
   51      H      -1.9261275508     1.2010234889     1.6499045369
   52      O      -1.6586406541     2.7939741600    -0.5714752574
   53      H      -0.9590316048     0.9027049291    -1.2657572949
 ----------------------------------------------------------------

    9    -968.1241876945      8.32e-09  Convergence criterion met
 Total energy in the final basis set =     -968.1241876945
 Final energy is   -968.124187694478
 **  OPTIMIZATION CONVERGED  **

                    Orbital Energies (a.u.)
 --------------------------------------------------------------

 Alpha MOs
 -- Occupied --
-18.835 -18.834  -9.979  -9.979  -9.943  -9.938  -9.935  -9.934
 -9.933  -9.933  -9.932  -9.932  -9.931  -9.928  -9.926  -9.924
 -9.924  -9.923  -9.923  -9.917  -9.912  -9.901  -9.901  -0.988
 -0.794  -0.752  -0.746  -0.728  -0.698  -0.695  -0.680  -0.663
 -0.637  -0.617  -0.610  -0.599  -0.594  -0.591  -0.555  -0.528
 -0.506  -0.492  -0.484  -0.474  -0.467  -0.446  -0.430  -0.426
 -0.420  -0.410  -0.399  -0.390  -0.382  -0.378  -0.370  -0.368
 -0.365  -0.362  -0.358  -0.351  -0.347  -0.345  -0.342  -0.337
 -0.325  -0.323  -0.321  -0.315  -0.311  -0.304  -0.301  -0.296
 -0.294  -0.290  -0.289  -0.284  -0.282  -0.271  -0.267  -0.263
 -0.257  -0.240  -0.218  -0.191  -0.171  -0.163

          Ground-State Mulliken Net Atomic Charges

     Atom                 Charge (a.u.)
  ----------------------------------------
      1 C                    -0.090623
      2 C                    -0.056984
      3 C                    -0.094071
      4 C                     0.146284
      5 C                     0.114903
      6 C                     0.125074
      7 H                     0.055842
      8 H                     0.052489
      9 C                     0.098778
     10 C                     0.074223
     11 C                    -0.198925
     12 C                    -0.163098
     13 H                     0.081835
     14 H                     0.090506
     15 C                    -0.140956
     16 H                     0.085799
     17 H                     0.069504
     18 C                     0.031579
     19 H                     0.067374
     20 H                     0.069205
     21 C                    -0.354364
     22 H                     0.103968
     23 H                     0.101228
     24 H                     0.106348
     25 C                    -0.289096
     26 H                     0.081913
     27 H                     0.080291
     28 H                     0.116721
     29 C                    -0.296717
     30 H                     0.076250
     31 H                     0.124498
     32 H                     0.078380
     33 C                     0.156880
     34 C                    -0.108761
     35 C                    -0.003101
     36 C                    -0.221943
     37 H                     0.059163
     38 H                     0.053149
     39 H                     0.082984
     40 H                     0.085238
     41 H                     0.053352
     42 C                    -0.364192
     43 H                     0.101142
     44 H                     0.106301
     45 H                     0.131508
     46 C                    -0.358872
     47 H                     0.097515
     48 H                     0.112220
     49 H                     0.113313
     50 O                    -0.309225
     51 H                     0.081918
     52 O                    -0.292664
     53 H                     0.075915
  ----------------------------------------
  Sum of atomic charges =    -0.000000

                    Cartesian Multipole Moments
 -----------------------------------------------------------------
    Charge (ESU x 10^10)
                -0.0000
    Dipole Moment (Debye)
         X       2.3114      Y      -2.6440      Z       1.3590
       Tot       3.7657
    Quadrupole Moments (Debye-Ang)
        XX    -135.4569     XY       8.5556     YY    -147.6801
        XZ       1.0904     YZ       4.8123     ZZ    -137.7525

 Total job time:  946.21s(wall), 7449.57s(cpu)
        *  Thank you very much for using Q-Chem.  Have a nice day.  *
