 Q-Chem 5.1, Q-Chem, Inc., Pleasanton, CA (2018)
 Q-Chem 5.1.1 for Intel X86 EM64T Linux

User input:
--------------------------------------------------------------
$molecule
2 5
O         -2.11771        2.84524        1.90186
O         -1.27741        2.18552        1.47373
Fe        -2.81544        4.11050        2.04380
$end

$rem
JOBTYPE                  OPT
EXCHANGE                 B3LYP
BASIS                    VDZ
MAX_SCF_CYCLES = 500
SCF_ALGORITHM = DIIS_GDM
$end
--------------------------------------------------------------

   27   -1412.7085313954      5.99e-09  Convergence criterion met
 Total energy in the final basis set =    -1412.7085313954
   26   -1412.7979150181      1.37e-09  Convergence criterion met
 Total energy in the final basis set =    -1412.7979150181
   26   -1412.8284885479      7.56e-09  Convergence criterion met
 Total energy in the final basis set =    -1412.8284885479
   28   -1412.8409812646      4.32e-09  Convergence criterion met
 Total energy in the final basis set =    -1412.8409812646
   36   -1412.8452018184      3.50e-09  Convergence criterion met
 Total energy in the final basis set =    -1412.8452018184
   37   -1412.8473270973      5.37e-09  Convergence criterion met
 Total energy in the final basis set =    -1412.8473270973
   26   -1412.8475447547      2.43e-09  Convergence criterion met
 Total energy in the final basis set =    -1412.8475447547
   27   -1412.8476900784      9.17e-09  Convergence criterion met
   24   -1412.8476969744      6.23e-09  Convergence criterion met
 Total energy in the final basis set =    -1412.8476969744
   21   -1412.8476977818      4.18e-09  Convergence criterion met
 Total energy in the final basis set =    -1412.8476977818
   22   -1412.8477012769      6.75e-09  Convergence criterion met
 Total energy in the final basis set =    -1412.8477012769
   24   -1412.8477055753      8.15e-09  Convergence criterion met
 Total energy in the final basis set =    -1412.8477055753
   25   -1412.8477094433      8.47e-09  Convergence criterion met
 Total energy in the final basis set =    -1412.8477094433
   27   -1412.8477105453      2.70e-10  Convergence criterion met
 Total energy in the final basis set =    -1412.8477105453

             Standard Nuclear Orientation (Angstroms)
    I     Atom           X                Y                Z
 ----------------------------------------------------------------
    1      O       0.8095210359    -0.0197085703     0.0000000000
    2      O       2.0449184207     0.0098867636     0.0000000000
    3      Fe     -1.1585186781    -0.0568319480     0.0000000000
 ----------------------------------------------------------------

   21   -1412.8477106672      6.52e-09  Convergence criterion met
 Total energy in the final basis set =    -1412.8477106672
 Final energy is   -1412.84771066724
 **  OPTIMIZATION CONVERGED  **

             Orbital Energies (a.u.) and Symmetries
 --------------------------------------------------------------

 Alpha MOs, Unrestricted
 -- Occupied --
-256.70  -30.68  -26.57  -26.54  -26.53  -19.81  -19.78   -4.17
  1 A'    2 A'    3 A'    1 A"    4 A'    5 A'    6 A'    7 A'
 -2.989  -2.932  -2.920  -1.769  -1.309  -1.054  -1.042  -0.993
  8 A'    2 A"    9 A'   10 A'   11 A'   12 A'   13 A'    3 A"
 -0.974  -0.960  -0.953  -0.952  -0.917  -0.801
 14 A'   15 A'    4 A"    5 A"   16 A'   17 A'

 Beta MOs, Unrestricted
 -- Occupied --
-256.70  -30.61  -26.49  -26.48  -26.48  -19.80  -19.78   -3.99
  1 A'    2 A'    3 A'    1 A"    4 A'    5 A'    6 A'    7 A'
 -2.760  -2.750  -2.746  -1.762  -1.298  -1.035  -1.030  -0.958
  8 A'    2 A"    9 A'   10 A'   11 A'   12 A'    3 A"   13 A'
 -0.832  -0.799
 14 A'    4 A"

          Ground-State Mulliken Net Atomic Charges

     Atom                 Charge (a.u.)    Spin (a.u.)
  --------------------------------------------------------
      1 O                    -0.199437       0.105465
      2 O                     0.413683       0.061910
      3 Fe                    1.785753       3.832625
  --------------------------------------------------------
  Sum of atomic charges =     2.000000

                    Cartesian Multipole Moments
 -----------------------------------------------------------------
    Charge (ESU x 10^10)
                 9.6064
    Dipole Moment (Debye)
         X      -6.4184      Y      -0.4444      Z       0.0000
       Tot       6.4338
    Quadrupole Moments (Debye-Ang)
        XX       2.7429     XY       0.6237     YY     -17.3072
        XZ      -0.0000     YZ      -0.0000     ZZ     -17.1440

 Total job time:  44.78s(wall), 523.44s(cpu)
        *  Thank you very much for using Q-Chem.  Have a nice day.  *
