 Q-Chem 5.1, Q-Chem, Inc., Pleasanton, CA (2018)
 Q-Chem 5.1.1 for Intel X86 EM64T Linux

User input:
--------------------------------------------------------------
$molecule
2 5
Fe         0.29287       -0.25576        0.08878
H         -4.04064       -5.89730        2.78914
H         -3.40022       -3.37626        2.96365
H         -3.26263       -5.68246        4.35088
C         -3.06527       -6.00113        3.30995
C         -2.32501       -3.60597        3.08272
H         -3.42346       -8.12847        3.56241
H         -2.09939       -3.44819        4.15443
C         -2.60410       -7.45399        3.26389
C         -2.07631       -5.03950        2.69403
H         -1.76367       -2.88245        2.48193
H         -2.95493       -7.57268        1.14566
C         -2.12613       -7.77259        1.85259
H         -1.78682       -7.61214        3.99220
C         -1.07370       -5.46018        1.87301
H         -1.86740       -8.84026        1.74163
O         -0.52168       -3.30639        0.65142
H         -1.65507       -6.50901       -0.59059
C         -0.90711       -6.92333        1.43099
C         -0.80288       -7.01726       -0.10777
C         -0.01818       -4.53386        1.36315
H          0.29970       -3.40983        3.24098
O          0.64361       -2.50006        1.34136
C          0.82204       -3.63532        2.29587
H         -0.81570       -8.07828       -0.41292
C          0.37945       -7.50499        2.05601
H          0.30788       -7.54530        3.15595
H          0.12639       -6.57709       -0.50220
H          0.66542       -5.04916        0.67390
H          0.56360       -8.52835        1.68439
H          1.80314       -5.52393        4.00504
C          2.24879       -3.99343        2.54669
H          2.30582       -3.97824        4.70489
H          1.26488       -6.89557        1.80134
C          2.49427       -4.67195        3.86375
H          2.84651       -3.20628        0.69742
C          3.18961       -3.71661        1.60371
H          3.51881       -5.05440        3.96685
C          4.60811       -4.00223        1.68014
H          4.98594       -4.48393        2.58792
H          5.15028       -3.21763       -0.23117
C          5.48188       -3.70095        0.69339
H          6.54727       -3.92683        0.77746
$end

$rem
BASIS = STO-3G
METHOD  = BLYP
JOBTYPE = OPT
MAX_SCF_CYCLES = 500
SCF_ALGORITHM = DIIS_GDM
$end
--------------------------------------------------------------

   63   -2013.9105561630      4.22e-09  Convergence criterion met
 Total energy in the final basis set =    -2013.9105561630
   33   -2013.9397214309      9.11e-09  Convergence criterion met
 Total energy in the final basis set =    -2013.9397214309
   33   -2013.9490596536      6.88e-09  Convergence criterion met
 Total energy in the final basis set =    -2013.9490596536
   37   -2013.9543083841      1.73e-09  Convergence criterion met
 Total energy in the final basis set =    -2013.9543083841
   33   -2013.9585591936      4.79e-09  Convergence criterion met
 Total energy in the final basis set =    -2013.9585591936
   30   -2013.9520763087      6.84e-09  Convergence criterion met
 Total energy in the final basis set =    -2013.9520763087
   33   -2013.9598973559      6.00e-09  Convergence criterion met
 Total energy in the final basis set =    -2013.9598973559
   31   -2013.9606302048      7.25e-09  Convergence criterion met
   36   -2013.9720440186      2.13e-09  Convergence criterion met
 Total energy in the final basis set =    -2013.9720440186
   32   -2013.9725555681      3.25e-09  Convergence criterion met
 Total energy in the final basis set =    -2013.9725555681
   30   -2013.9725960330      8.58e-09  Convergence criterion met
 Total energy in the final basis set =    -2013.9725960330
   29   -2013.9726614989      2.25e-09  Convergence criterion met
 Total energy in the final basis set =    -2013.9726614989
   26   -2013.9726733617      4.82e-09  Convergence criterion met
 Total energy in the final basis set =    -2013.9726733617
   23   -2013.9726774639      9.21e-09  Convergence criterion met
 Total energy in the final basis set =    -2013.9726774639

             Standard Nuclear Orientation (Angstroms)
    I     Atom           X                Y                Z
 ----------------------------------------------------------------
    1      Fe      2.6170392762     1.8550602737    -0.7527555272
    2      H      -4.1821600016     2.2565682824     0.3525582247
    3      H      -2.0708026707     3.1689904042     1.6639039371
    4      H      -4.1498617272     1.4675617659     1.9527543141
    5      C      -3.8884714609     1.3095740699     0.8794541660
    6      C      -1.5924547208     2.1653289700     1.7123761082
    7      H      -5.7404661060     0.3544400458     0.1943420498
    8      H      -1.7122545118     1.8114483905     2.7633107889
    9      C      -4.6609793664     0.0992228123     0.2564036394
   10      C      -2.3510448037     1.2080100143     0.7643144948
   11      H      -0.5187820490     2.2715032655     1.4747995081
   12      H      -4.2226985007     0.7228975498    -1.8027168868
   13      C      -4.0967590927    -0.1849259796    -1.1731431712
   14      H      -4.5593086946    -0.7933169854     0.9100248136
   15      C      -1.7367757109     0.3210728189    -0.1669496712
   16      H      -4.6623525481    -1.0113681019    -1.6536148614
   17      O       0.5741497038     1.5432338198    -0.3362698525
   18      H      -1.9848906034     0.6123328862    -2.9643049828
   19      C      -2.5590126797    -0.5867240932    -1.1583910892
   20      C      -2.0088113320    -0.4502744829    -2.6478549622
   21      C      -0.2168252488     0.1447683143    -0.2345954296
   22      H       0.0902156448     0.0051785246     2.0313252610
   23      O       1.5078561808     1.1366772674     0.8286419639
   24      C       0.6530262981    -0.2126906240     1.0888772981
   25      H      -2.7008164991    -0.9976709564    -3.3190086303
   26      C      -2.4030159319    -2.1094612881    -0.6907372980
   27      H      -2.8161642515    -2.2540834779     0.3275439116
   28      H      -1.0007107650    -0.8945001147    -2.7726063177
   29      H       0.0777070278    -0.4756076900    -1.1162786319
   30      H      -2.9678842438    -2.7496844344    -1.3982058946
   31      H       1.0513323801    -1.4537898028     3.3909260366
   32      C       1.4914452445    -1.4778759763     1.2297385607
   33      H       2.6592519023    -2.1495032161     2.9693483670
   34      H      -1.3418826481    -2.4307615793    -0.7002134689
   35      C       1.5935904707    -2.0784542743     2.6541478534
   36      H       1.9893959798    -1.6199854429    -0.8963675860
   37      C       2.1170171257    -2.0706180465     0.1126526007
   38      H       1.1652460312    -3.1059430189     2.6783432325
   39      C       2.9280822711    -3.2888815344     0.1762541321
   40      H       3.0887471256    -3.7636391428     1.1654404162
   41      H       3.3575318298    -3.4308487842    -1.9715787525
   42      C       3.4894031153    -3.8684842890    -0.9581282089
   43      H       4.0912561934    -4.8006795524    -0.8847814029
 ----------------------------------------------------------------

   23   -2013.9726784346      6.77e-09  Convergence criterion met
 Total energy in the final basis set =    -2013.9726784346
 Final energy is   -2013.97267843461
 **  OPTIMIZATION CONVERGED  **

                    Orbital Energies (a.u.)
 --------------------------------------------------------------

 Alpha MOs
 -- Occupied --
******* -29.688 -26.241 -26.240 -26.238 -19.001 -18.999 -10.152
-10.149 -10.080 -10.075 -10.071 -10.059 -10.051 -10.046 -10.030
-10.023 -10.022 -10.009  -9.982  -9.979  -9.975  -9.973  -3.885
 -2.724  -2.721  -2.716  -1.315  -1.099  -1.008  -0.980  -0.947
 -0.917  -0.909  -0.871  -0.851  -0.845  -0.809  -0.803  -0.799
 -0.770  -0.737  -0.726  -0.716  -0.711  -0.699  -0.683  -0.643
 -0.635  -0.627  -0.620  -0.617  -0.600  -0.596  -0.593  -0.584
 -0.582  -0.576  -0.568  -0.561  -0.560  -0.558  -0.553  -0.552
 -0.551  -0.550  -0.547  -0.541  -0.537  -0.533  -0.528  -0.523
 -0.508  -0.505  -0.498  -0.495  -0.464  -0.461  -0.459  -0.450
 -0.440  -0.422

 Beta MOs
 -- Occupied --
******* -29.645 -26.207 -26.206 -26.204 -19.002 -19.000 -10.151
-10.149 -10.082 -10.076 -10.073 -10.061 -10.051 -10.048 -10.030
-10.022 -10.022 -10.009  -9.982  -9.980  -9.975  -9.973  -3.660
 -2.498  -2.496  -2.495  -1.315  -1.100  -1.010  -0.984  -0.949
 -0.919  -0.911  -0.872  -0.854  -0.846  -0.810  -0.804  -0.800
 -0.772  -0.738  -0.727  -0.717  -0.712  -0.699  -0.684  -0.644
 -0.636  -0.627  -0.620  -0.617  -0.600  -0.597  -0.594  -0.585
 -0.583  -0.575  -0.569  -0.561  -0.560  -0.558  -0.553  -0.547
 -0.539  -0.529  -0.523  -0.512  -0.508  -0.500  -0.496  -0.471
 -0.462  -0.460  -0.450  -0.445  -0.434  -0.425

          Ground-State Mulliken Net Atomic Charges

     Atom                 Charge (a.u.)    Spin (a.u.)
  --------------------------------------------------------
      1 Fe                    0.603339       4.794493
      2 H                     0.125692      -0.017431
      3 H                     0.132910      -0.006765
      4 H                     0.119351      -0.005038
      5 C                    -0.132185       0.000201
      6 C                    -0.228251       0.006047
      7 H                     0.112111       0.000118
      8 H                     0.123780      -0.009588
      9 C                    -0.128238      -0.002856
     10 C                     0.083626      -0.148584
     11 H                     0.082706      -0.000355
     12 H                     0.089888      -0.000901
     13 C                    -0.129180      -0.001435
     14 H                     0.088104      -0.000293
     15 C                     0.022571      -0.173482
     16 H                     0.103187       0.000035
     17 O                    -0.042800      -0.025046
     18 H                     0.089999      -0.000529
     19 C                     0.029217      -0.005255
     20 C                    -0.213687      -0.014436
     21 C                     0.020510       0.014235
     22 H                     0.144326       0.000086
     23 O                    -0.052121      -0.019076
     24 C                     0.021451       0.012661
     25 H                     0.112986      -0.000739
     26 C                    -0.211074      -0.027474
     27 H                     0.091751       0.000324
     28 H                     0.068297       0.000598
     29 H                     0.128937      -0.002259
     30 H                     0.111278      -0.002380
     31 H                     0.108507      -0.000020
     32 C                     0.033321      -0.135597
     33 H                     0.124955      -0.009712
     34 H                     0.066436       0.000921
     35 C                    -0.219249       0.003607
     36 H                     0.096291       0.001289
     37 C                    -0.031730      -0.027800
     38 H                     0.125125      -0.006453
     39 C                    -0.039228      -0.033272
     40 H                     0.133417       0.001379
     41 H                     0.130057       0.007225
     42 C                    -0.050566      -0.173790
     43 H                     0.154185       0.007351
  --------------------------------------------------------
  Sum of atomic charges =     2.000000

                    Cartesian Multipole Moments
 -----------------------------------------------------------------
    Charge (ESU x 10^10)
                 9.6064
    Dipole Moment (Debye)
         X       4.4161      Y      -2.2907      Z       0.8025
       Tot       5.0391
    Quadrupole Moments (Debye-Ang)
        XX     -48.3348     XY     -21.9919     YY     -69.3186
        XZ      -3.4573     YZ       2.9151     ZZ     -96.1713

 Total job time:  1614.41s(wall), 12862.79s(cpu)
        *  Thank you very much for using Q-Chem.  Have a nice day.  *
