 Q-Chem 5.1, Q-Chem, Inc., Pleasanton, CA (2018)
 Q-Chem 5.1.1 for Intel X86 EM64T Linux

User input:
--------------------------------------------------------------
$molecule
0 1
C         -0.18222        1.96702       -0.65485
C         -0.70759        1.24622        0.33994
C          0.16078        0.40055        1.20033
C         -0.24823       -0.37372        2.23738
C          0.80217       -1.14753        2.97312
C          0.54069       -1.97432        4.00706
H         -0.82439        2.58151       -1.27787
H          0.88426        1.95457       -0.85972
H         -1.77731        1.31098        0.48098
H          1.22254        0.41564        0.96178
H          1.81918       -1.05905        2.61142
C          1.55966       -2.80751        4.74377
H         -0.49474       -2.12621        4.27738
C          2.85364       -2.39678        5.00666
C          3.84592       -3.27947        5.74849
C          3.19677       -4.40271        6.54915
H          4.43829       -2.68421        6.47743
H          4.55524       -3.68631        4.99520
C          2.22171       -5.12979        5.65100
H          2.67020       -3.99698        7.43687
H          3.98956       -5.09120        6.91354
C          1.05462       -4.19792        5.21596
H          1.82177       -6.03679        6.15591
H          2.79781       -5.47522        4.76170
C          3.42351       -1.02929        4.68005
H          2.69937       -0.27480        4.33907
H          4.25291       -1.12833        3.94887
H          3.83010       -0.58074        5.61098
C          0.05793       -4.00402        6.38493
H          0.52257       -3.46135        7.23269
H         -0.30473       -4.98670        6.75626
H         -0.83348       -3.42295        6.07303
C          0.32568       -4.93834        4.06713
H          1.00482       -5.07622        3.19800
H         -0.57016       -4.38521        3.71664
H         -0.02076       -5.94019        4.40277
C         -1.69697       -0.48255        2.67467
H         -2.40939        0.12116        2.08956
H         -1.78665       -0.15345        3.73120
H         -2.02830       -1.53891        2.59208
$end

$rem
BASIS = 6-31G
METHOD  = BLYP
JOBTYPE = OPT
$end
--------------------------------------------------------------

   16    -623.5965483793      1.67e-09  Convergence criterion met
 Total energy in the final basis set =     -623.5965483793
   13    -623.6061936547      2.54e-09  Convergence criterion met
 Total energy in the final basis set =     -623.6061936547
   12    -623.6067584439      5.87e-09  Convergence criterion met
 Total energy in the final basis set =     -623.6067584439
   12    -623.6078951396      9.26e-09  Convergence criterion met
 Total energy in the final basis set =     -623.6078951396
   12    -623.6081100054      2.14e-09  Convergence criterion met
 Total energy in the final basis set =     -623.6081100054
   10    -623.6081679480      8.06e-09  Convergence criterion met
 Total energy in the final basis set =     -623.6081679480
   10    -623.6081836882      5.54e-09  Convergence criterion met
 Total energy in the final basis set =     -623.6081836882
    9    -623.6081912716      9.95e-09  Convergence criterion met
 Total energy in the final basis set =     -623.6081912716
   10    -623.6081949524      2.99e-09  Convergence criterion met
 Total energy in the final basis set =     -623.6081949524
    9    -623.6081960318      5.72e-09  Convergence criterion met
 Total energy in the final basis set =     -623.6081960318

             Standard Nuclear Orientation (Angstroms)
    I     Atom           X                Y                Z
 ----------------------------------------------------------------
    1      C       6.1119828290    -0.7053632800    -0.8842699163
    2      C       5.1232689876     0.0101319448    -0.2793416582
    3      C       3.7128453139    -0.3335257745    -0.3504273361
    4      C       2.6421816455     0.3323870962     0.2152377827
    5      C       1.2933698477    -0.1959556728    -0.0121135451
    6      C       0.1198625993     0.3758481529     0.4051568855
    7      H       7.1621272736    -0.4142157039    -0.8106836142
    8      H       5.8942141433    -1.6024697947    -1.4727145664
    9      H       5.4061094492     0.9014543659     0.2921660312
   10      H       3.4834339323    -1.2339141086    -0.9362978489
   11      H       1.2486952407    -1.1156381614    -0.6063848969
   12      C      -1.2569617984    -0.1123004005     0.1542691876
   13      H       0.1816960270     1.3410545296     0.9227623979
   14      C      -1.6424794934    -1.4237984529     0.3093836589
   15      C      -3.0673906817    -1.9094479366     0.0186874905
   16      C      -4.1218999718    -0.7804722217    -0.0555765347
   17      H      -3.3584592950    -2.6515833850     0.7872106830
   18      H      -3.0598559976    -2.4712608222    -0.9411822688
   19      C      -3.5649607040     0.3998580817    -0.8795444084
   20      H      -4.3780359837    -0.4429742679     0.9657212228
   21      H      -5.0570211511    -1.1624911765    -0.5041605025
   22      C      -2.2691584151     1.0143977015    -0.2556691814
   23      H      -4.3224623640     1.1987745936    -0.9864270138
   24      H      -3.3332376039     0.0424741954    -1.9022544303
   25      C      -0.7175143555    -2.5367191745     0.7919193267
   26      H       0.1995695767    -2.1538336087     1.2611712450
   27      H      -0.4149989639    -3.2054827578    -0.0386039590
   28      H      -1.2435939038    -3.1747109010     1.5267142962
   29      C      -2.6398831867     1.8714855252     1.0044614847
   30      H      -3.1326305812     1.2600717615     1.7775668659
   31      H      -3.3242009110     2.6916599542     0.7212278463
   32      H      -1.7440140184     2.3269367676     1.4598209345
   33      C      -1.6332989996     1.9567726386    -1.3316503589
   34      H      -1.2881459654     1.3768096453    -2.2044907274
   35      H      -0.7697872095     2.5145123904    -0.9348379074
   36      H      -2.3813846676     2.6918783539    -1.6799974996
   37      C       2.7927937431     1.5959765392     1.0547680483
   38      H       3.8435272278     1.8728831223     1.2163672590
   39      H       2.3226410175     1.4661564603     2.0461272383
   40      H       2.2911804940     2.4555054314     0.5723238412
 ----------------------------------------------------------------

    8    -623.6081965779      6.18e-09  Convergence criterion met
 Total energy in the final basis set =     -623.6081965779
 Final energy is   -623.608196577911
 **  OPTIMIZATION CONVERGED  **

                    Orbital Energies (a.u.)
 --------------------------------------------------------------

 Alpha MOs
 -- Occupied --
 -9.932  -9.930  -9.921  -9.921  -9.916  -9.916  -9.915  -9.914
 -9.914  -9.914  -9.910  -9.910  -9.907  -9.904  -9.903  -9.900
 -0.753  -0.733  -0.696  -0.693  -0.673  -0.640  -0.611  -0.602
 -0.597  -0.592  -0.546  -0.516  -0.496  -0.478  -0.460  -0.436
 -0.417  -0.401  -0.397  -0.384  -0.379  -0.365  -0.363  -0.361
 -0.352  -0.344  -0.342  -0.339  -0.334  -0.330  -0.316  -0.314
 -0.305  -0.297  -0.293  -0.288  -0.285  -0.272  -0.267  -0.257
 -0.246  -0.235  -0.194  -0.156

          Ground-State Mulliken Net Atomic Charges

     Atom                 Charge (a.u.)
  ----------------------------------------
      1 C                    -0.284378
      2 C                    -0.027790
      3 C                    -0.163563
      4 C                     0.156399
      5 C                    -0.117228
      6 C                    -0.159686
      7 H                     0.105199
      8 H                     0.106691
      9 H                     0.094239
     10 H                     0.086439
     11 H                     0.096320
     12 C                     0.084286
     13 H                     0.097552
     14 C                     0.095565
     15 C                    -0.274060
     16 C                    -0.217931
     17 H                     0.110001
     18 H                     0.120944
     19 C                    -0.206956
     20 H                     0.114350
     21 H                     0.100793
     22 C                     0.014672
     23 H                     0.097125
     24 H                     0.105528
     25 C                    -0.438463
     26 H                     0.140415
     27 H                     0.127839
     28 H                     0.117352
     29 C                    -0.368992
     30 H                     0.121869
     31 H                     0.113270
     32 H                     0.116489
     33 C                    -0.360613
     34 H                     0.119368
     35 H                     0.112544
     36 H                     0.109115
     37 C                    -0.451089
     38 H                     0.128575
     39 H                     0.138843
     40 H                     0.138967
  ----------------------------------------
  Sum of atomic charges =    -0.000000

                    Cartesian Multipole Moments
 -----------------------------------------------------------------
    Charge (ESU x 10^10)
                -0.0000
    Dipole Moment (Debye)
         X      -0.7157      Y       0.1581      Z       0.1929
       Tot       0.7579
    Quadrupole Moments (Debye-Ang)
        XX     -98.8591     XY       2.0641     YY     -97.7069
        XZ       0.9147     YZ       2.9002     ZZ    -102.3056

 Total job time:  452.39s(wall), 903.82s(cpu)
        *  Thank you very much for using Q-Chem.  Have a nice day.  *
