 Q-Chem 5.1, Q-Chem, Inc., Pleasanton, CA (2018)
 Q-Chem 5.1.1 for Intel X86 EM64T Linux

User input:
--------------------------------------------------------------
$molecule
2 5
Fe         2.61704        1.85506       -0.75276
H         -4.18216        2.25657        0.35256
H         -2.07080        3.16899        1.66390
H         -4.14986        1.46756        1.95275
C         -3.88847        1.30957        0.87945
C         -1.59245        2.16533        1.71238
H         -5.74047        0.35444        0.19434
H         -1.71225        1.81145        2.76331
C         -4.66098        0.09922        0.25640
C         -2.35104        1.20801        0.76431
H         -0.51878        2.27150        1.47480
H         -4.22270        0.72290       -1.80272
C         -4.09676       -0.18493       -1.17314
H         -4.55931       -0.79332        0.91002
C         -1.73678        0.32107       -0.16695
H         -4.66235       -1.01137       -1.65361
O          0.57415        1.54323       -0.33627
H         -1.98489        0.61233       -2.96430
C         -2.55901       -0.58672       -1.15839
C         -2.00881       -0.45027       -2.64785
C         -0.21683        0.14477       -0.23460
H          0.09022        0.00518        2.03133
O          1.50786        1.13668        0.82864
C          0.65303       -0.21269        1.08888
H         -2.70082       -0.99767       -3.31901
C         -2.40302       -2.10946       -0.69074
H         -2.81616       -2.25408        0.32754
H         -1.00071       -0.89450       -2.77261
H          0.07771       -0.47561       -1.11628
H         -2.96788       -2.74968       -1.39821
C          1.49145       -1.47788        1.22974
H         -1.34188       -2.43076       -0.70021
C          1.59359       -2.07845        2.65415
H          1.98940       -1.61999       -0.89637
C          2.11702       -2.07062        0.11265
C          2.92808       -3.28888        0.17625
H          3.08875       -3.76364        1.16544
H          3.35753       -3.43085       -1.97158
C          3.48940       -3.86848       -0.95813
H          4.09126       -4.80068       -0.88478
H          2.20317       -2.95744        2.62774
H          0.61531       -2.33325        3.00479
H          2.03284       -1.35948        3.31371
$end

$rem
JOBTYPE         freq
EXCHANGE          B3LYP
BASIS           STO-3G
SCF_MAX_CYCLES  250
SYMMETRY        false
SYM_IGNORE      true
$end

--------------------------------------------------------------

   30   -2014.4453720016      4.82e-09  Convergence criterion met
 Total energy in the final basis set =    -2014.4453720016
 Frequency:      -590.29                -123.18                  55.16
 Force Cnst:      0.2072                 0.0215                 0.0108
 Red. Mass:       1.0092                 2.4101                 6.0116
 IR Intens:        0.346                  0.591                  0.316
 Frequency:        70.33                  83.52                  99.16
 Force Cnst:      0.0119                 0.0253                 0.0253
 Red. Mass:       4.0738                 6.1475                 4.3729
 IR Intens:        1.677                  1.931                  0.835
 Frequency:       122.23                 149.58                 159.06
 Force Cnst:      0.0404                 0.0602                 0.0618
 Red. Mass:       4.5859                 4.5669                 4.1457
 IR Intens:        0.201                  0.773                  1.072
 Frequency:       165.61                 169.75                 219.71
 Force Cnst:      0.0591                 0.0626                 0.0908
 Red. Mass:       3.6591                 3.6865                 3.1914
 IR Intens:        1.900                  0.264                  3.736
 Frequency:       234.74                 249.95                 272.51
 Force Cnst:      0.1316                 0.0963                 0.1614
 Red. Mass:       4.0523                 2.6164                 3.6898
 IR Intens:        0.861                  1.434                  0.573
 Frequency:       282.99                 293.82                 317.70
 Force Cnst:      0.1063                 0.2165                 0.2002
 Red. Mass:       2.2529                 4.2574                 3.3665
 IR Intens:        0.017                  4.268                  4.747
 Frequency:       321.02                 325.41                 342.19
 Force Cnst:      0.1442                 0.1860                 0.0768
 Red. Mass:       2.3757                 2.9819                 1.1130
 IR Intens:        8.492                 20.290                  1.242
 Frequency:       343.70                 353.36                 368.76
 Force Cnst:      0.0883                 0.1127                 0.1551
 Red. Mass:       1.2683                 1.5324                 1.9357
 IR Intens:        2.931                  1.541                  2.692
 Frequency:       380.27                 405.70                 430.62
 Force Cnst:      0.2073                 0.2361                 0.3269
 Red. Mass:       2.4331                 2.4343                 2.9924
 IR Intens:        0.613                  3.269                  2.335
 Frequency:       439.72                 447.73                 469.70
 Force Cnst:      0.3044                 0.3834                 0.4027
 Red. Mass:       2.6722                 3.2463                 3.0981
 IR Intens:       16.346                  1.183                  4.397
 Frequency:       499.21                 520.09                 573.26
 Force Cnst:      0.5582                 0.4918                 0.8284
 Red. Mass:       3.8016                 3.0861                 4.2786
 IR Intens:        9.934                 59.040                161.374
 Frequency:       590.23                 654.98                 662.24
 Force Cnst:      0.5181                 0.9797                 0.3376
 Red. Mass:       2.5240                 3.8760                 1.3064
 IR Intens:       34.639                 19.217                  3.276
 Frequency:       677.00                 752.16                 766.65
 Force Cnst:      1.2230                 1.3557                 2.0198
 Red. Mass:       4.5290                 4.0673                 5.8326
 IR Intens:      158.544                127.244                 96.566
 Frequency:       810.49                 841.26                 868.53
 Force Cnst:      1.6768                 1.7042                 1.3622
 Red. Mass:       4.3325                 4.0871                 3.0650
 IR Intens:       39.790                 15.462                296.186
 Frequency:       902.56                 932.15                 956.36
 Force Cnst:      0.8072                 1.2205                 1.1670
 Red. Mass:       1.6818                 2.3840                 2.1655
 IR Intens:      193.647                 42.271                  9.919
 Frequency:       967.44                 975.17                1002.63
 Force Cnst:      1.1063                 0.8567                 1.2402
 Red. Mass:       2.0063                 1.5290                 2.0939
 IR Intens:        7.938                 18.760                 13.411
 Frequency:      1008.27                1017.09                1020.68
 Force Cnst:      1.3647                 1.1541                 1.6362
 Red. Mass:       2.2784                 1.8936                 2.6657
 IR Intens:       42.978                 30.665                 41.523
 Frequency:      1033.66                1042.23                1053.87
 Force Cnst:      2.0583                 1.0735                 0.9187
 Red. Mass:       3.2697                 1.6773                 1.4040
 IR Intens:      229.352                 87.147                  6.020
 Frequency:      1059.41                1061.90                1072.22
 Force Cnst:      1.0286                 0.7559                 1.0373
 Red. Mass:       1.5555                 1.1377                 1.5314
 IR Intens:        0.895                  7.191                 48.079
 Frequency:      1080.09                1117.32                1128.73
 Force Cnst:      1.3546                 0.9741                 1.1221
 Red. Mass:       1.9708                 1.3243                 1.4949
 IR Intens:      345.762                  4.024                  2.579
 Frequency:      1136.55                1167.36                1202.92
 Force Cnst:      1.3391                 2.1956                 2.5206
 Red. Mass:       1.7595                 2.7346                 2.9565
 IR Intens:       45.885                118.214                114.937
 Frequency:      1212.32                1234.43                1255.93
 Force Cnst:      1.4368                 1.1915                 1.8491
 Red. Mass:       1.6592                 1.3271                 1.9897
 IR Intens:       68.063                 24.496                  0.386
 Frequency:      1270.69                1278.21                1282.22
 Force Cnst:      1.4594                 1.9322                 1.4242
 Red. Mass:       1.5341                 2.0072                 1.4702
 IR Intens:       20.305                347.250                 79.489
 Frequency:      1294.99                1311.24                1335.03
 Force Cnst:      1.4904                 1.8323                 2.3336
 Red. Mass:       1.5085                 1.8087                 2.2223
 IR Intens:       14.458                126.000               2464.255
 Frequency:      1355.50                1370.20                1381.56
 Force Cnst:      1.5375                 1.6044                 1.4904
 Red. Mass:       1.4202                 1.4504                 1.3253
 IR Intens:       56.789                 23.448                 49.576
 Frequency:      1413.38                1438.54                1453.57
 Force Cnst:      1.7168                 1.9723                 1.7464
 Red. Mass:       1.4587                 1.6177                 1.4029
 IR Intens:      246.500               1026.159                782.506
 Frequency:      1470.25                1481.11                1493.54
 Force Cnst:      2.2582                 1.8462                 2.4538
 Red. Mass:       1.7731                 1.4284                 1.8670
 IR Intens:      599.998                153.282               1113.354
 Frequency:      1512.66                1519.27                1544.79
 Force Cnst:      2.1000                 2.4588                 1.6953
 Red. Mass:       1.5577                 1.8080                 1.2058
 IR Intens:        4.195                599.980                 14.458
 Frequency:      1560.01                1563.07                1578.03
 Force Cnst:      1.7171                 1.9814                 1.5419
 Red. Mass:       1.1975                 1.3765                 1.0509
 IR Intens:        3.497                 44.804                 19.065
 Frequency:      1578.91                1599.77                1609.13
 Force Cnst:      1.7705                 1.6562                 2.1919
 Red. Mass:       1.2054                 1.0984                 1.4368
 IR Intens:       18.002                 46.774                  4.157
 Frequency:      1633.75                1641.83                1658.53
 Force Cnst:      2.1779                 2.1639                 1.7533
 Red. Mass:       1.3849                 1.3625                 1.0818
 IR Intens:      591.304                303.977                  4.706
 Frequency:      1666.36                1667.54                1669.64
 Force Cnst:      1.7810                 1.8406                 1.7425
 Red. Mass:       1.0886                 1.1235                 1.0609
 IR Intens:        4.469                 10.438                  2.869
 Frequency:      1673.50                1680.89                1687.26
 Force Cnst:      1.7433                 1.7599                 1.7641
 Red. Mass:       1.0565                 1.0572                 1.0517
 IR Intens:        7.715                  8.734                 10.797
 Frequency:      3194.32                3231.15                3250.42
 Force Cnst:      6.4122                 6.4010                 6.4583
 Red. Mass:       1.0666                 1.0406                 1.0375
 IR Intens:      378.138                145.347                  4.626
 Frequency:      3250.88                3291.69                3298.18
 Force Cnst:      6.4562                 6.8051                 6.8313
 Red. Mass:       1.0369                 1.0660                 1.0659
 IR Intens:        7.607                  3.261                  3.043
 Frequency:      3313.96                3315.37                3322.48
 Force Cnst:      6.8840                 7.1092                 7.1034
 Red. Mass:       1.0639                 1.0978                 1.0922
 IR Intens:      287.337                  5.913                  4.747
 Frequency:      3331.23                3345.96                3358.57
 Force Cnst:      7.1325                 7.2191                 7.3170
 Red. Mass:       1.0909                 1.0944                 1.1010
 IR Intens:       14.174                  2.363                 11.994
 Frequency:      3396.07                3398.39                3402.99
 Force Cnst:      7.5454                 7.4694                 7.5748
 Red. Mass:       1.1104                 1.0977                 1.1102
 IR Intens:        0.464                 66.347                  2.111
 Frequency:      3412.98                3417.40                3422.73
 Force Cnst:      7.6009                 7.6232                 7.6493
 Red. Mass:       1.1075                 1.1079                 1.1082
 IR Intens:        2.570                  4.268                  1.746
 Frequency:      3425.17                3447.53                3472.03
 Force Cnst:      7.6648                 7.7406                 7.9681
 Red. Mass:       1.1089                 1.1054                 1.1218
 IR Intens:        7.049                 28.012                 46.301
 Frequency:      3597.11                3775.80                3790.43
 Force Cnst:      7.8854                 9.2963                 9.3747
 Red. Mass:       1.0343                 1.1067                 1.1075
 IR Intens:       97.857                  9.402                 12.910

 STANDARD THERMODYNAMIC QUANTITIES AT   298.15 K  AND     1.00 ATM

   This Molecule has  2 Imaginary Frequencies
   Zero point vibrational energy:      246.700 kcal/mol

   Atom    1 Element Fe Has Mass   55.93490
   Atom    2 Element H  Has Mass    1.00783
   Atom    3 Element H  Has Mass    1.00783
   Atom    4 Element H  Has Mass    1.00783
   Atom    5 Element C  Has Mass   12.00000
   Atom    6 Element C  Has Mass   12.00000
   Atom    7 Element H  Has Mass    1.00783
   Atom    8 Element H  Has Mass    1.00783
   Atom    9 Element C  Has Mass   12.00000
   Atom   10 Element C  Has Mass   12.00000
   Atom   11 Element H  Has Mass    1.00783
   Atom   12 Element H  Has Mass    1.00783
   Atom   13 Element C  Has Mass   12.00000
   Atom   14 Element H  Has Mass    1.00783
   Atom   15 Element C  Has Mass   12.00000
   Atom   16 Element H  Has Mass    1.00783
   Atom   17 Element O  Has Mass   15.99491
   Atom   18 Element H  Has Mass    1.00783
   Atom   19 Element C  Has Mass   12.00000
   Atom   20 Element C  Has Mass   12.00000
   Atom   21 Element C  Has Mass   12.00000
   Atom   22 Element H  Has Mass    1.00783
   Atom   23 Element O  Has Mass   15.99491
   Atom   24 Element C  Has Mass   12.00000
   Atom   25 Element H  Has Mass    1.00783
   Atom   26 Element C  Has Mass   12.00000
   Atom   27 Element H  Has Mass    1.00783
   Atom   28 Element H  Has Mass    1.00783
   Atom   29 Element H  Has Mass    1.00783
   Atom   30 Element H  Has Mass    1.00783
   Atom   31 Element C  Has Mass   12.00000
   Atom   32 Element H  Has Mass    1.00783
   Atom   33 Element C  Has Mass   12.00000
   Atom   34 Element H  Has Mass    1.00783
   Atom   35 Element C  Has Mass   12.00000
   Atom   36 Element C  Has Mass   12.00000
   Atom   37 Element H  Has Mass    1.00783
   Atom   38 Element H  Has Mass    1.00783
   Atom   39 Element C  Has Mass   12.00000
   Atom   40 Element H  Has Mass    1.00783
   Atom   41 Element H  Has Mass    1.00783
   Atom   42 Element H  Has Mass    1.00783
   Atom   43 Element H  Has Mass    1.00783
   Molecular Mass:   304.112640 amu
   Principal axes and moments of inertia in amu*Bohr^2:
                             1           2           3
    Eigenvalues --     4886.41322  8783.71715 10526.93566
          X               0.98281     0.18182    -0.03215
          Y              -0.18221     0.98321    -0.00980
          Z               0.02982     0.01549     0.99944
   Rotational Symmetry Number is   1
   The Molecule is an Asymmetric Top
   Translational Enthalpy:        0.889 kcal/mol
   Rotational Enthalpy:           0.889 kcal/mol
   Vibrational Enthalpy:        256.697 kcal/mol
   gas constant (RT):             0.592 kcal/mol
   Translational Entropy:        43.033  cal/mol.K
   Rotational Entropy:           34.467  cal/mol.K
   Vibrational Entropy:          59.677  cal/mol.K

   Total Enthalpy:              259.067 kcal/mol
   Total Entropy:               137.178  cal/mol.K

 Total job time:  1634.27s(wall), 12614.59s(cpu)
        *  Thank you very much for using Q-Chem.  Have a nice day.  *
 Q-Chem 5.1, Q-Chem, Inc., Pleasanton, CA (2018)
 Q-Chem 5.1.1 for Intel X86 EM64T Linux

User input:
--------------------------------------------------------------

$rem
JOBTYPE              ts
SCF_GUESS            read
GEOM_OPT_DMAX        100
GEOM_OPT_MAX_CYCLES  1500
EXCHANGE              B3LYP
BASIS                STO-3G
MAX_SCF_CYCLES       250
GEOM_OPT_HESSIAN     read
SYMMETRY             false
SYM_IGNORE           true
GEOM_OPT_CHARAC      true
$end

$molecule
read
$end
--------------------------------------------------------------

    2   -2014.4453720005      5.25e-09  Convergence criterion met
 Total energy in the final basis set =    -2014.4453720005
   16   -2014.4493813837      8.75e-09  Convergence criterion met
 Total energy in the final basis set =    -2014.4493813837
   16   -2014.4527974271      7.61e-09  Convergence criterion met
 Total energy in the final basis set =    -2014.4527974271
   15   -2014.4539522692      7.11e-09  Convergence criterion met
 Total energy in the final basis set =    -2014.4539522692
   15   -2014.4546627011      6.41e-09  Convergence criterion met
 Total energy in the final basis set =    -2014.4546627011
   15   -2014.4550250704      5.35e-09  Convergence criterion met
 Total energy in the final basis set =    -2014.4550250704
   15   -2014.4552015842      5.18e-09  Convergence criterion met
 **  OPTIMIZATION CONVERGED  **
 Total energy in the final basis set =    -2014.4552980145
   14   -2014.4552978344      6.52e-09  Convergence criterion met
 Total energy in the final basis set =    -2014.4552978344
   14   -2014.4552899081      5.43e-09  Convergence criterion met
 Total energy in the final basis set =    -2014.4552899081
   14   -2014.4552900487      6.64e-09  Convergence criterion met
 Total energy in the final basis set =    -2014.4552900487
   13   -2014.4553007938      7.61e-09  Convergence criterion met
 Total energy in the final basis set =    -2014.4553007938
   13   -2014.4553010883      7.70e-09  Convergence criterion met
 Total energy in the final basis set =    -2014.4553010883
   13   -2014.4552959819      5.27e-09  Convergence criterion met
 Total energy in the final basis set =    -2014.4552959819
   13   -2014.4552962181      6.86e-09  Convergence criterion met
 Total energy in the final basis set =    -2014.4552962181

             Standard Nuclear Orientation (Angstroms)
    I     Atom           X                Y                Z
 ----------------------------------------------------------------
    1      Fe      2.6962881377     1.8107569754    -0.8195771736
    2      H      -4.1307877249     2.2872741454     0.2077644172
    3      H      -2.0022793807     3.2472646567     1.5532640779
    4      H      -4.0857577789     1.6781094880     1.8729591183
    5      C      -3.8362760586     1.4110366405     0.8283979307
    6      C      -1.5378290873     2.2470829524     1.6181910214
    7      H      -5.6800014589     0.3821942708     0.2962256220
    8      H      -1.6461660463     1.9191076318     2.6703964329
    9      C      -4.6028128330     0.1497296331     0.3450717059
   10      C      -2.3127121187     1.2827536830     0.7127803235
   11      H      -0.4742821025     2.3303826919     1.3649221757
   12      H      -4.2480805233     0.5856895633    -1.7589058811
   13      C      -4.0839399420    -0.2513848862    -1.0584823119
   14      H      -4.4678170207    -0.6727970452     1.0673401400
   15      C      -1.7247550875     0.3519421188    -0.1687217280
   16      H      -4.6468555450    -1.1194508628    -1.4397089081
   17      O       0.6059307617     1.4923448571    -0.3225449311
   18      H      -2.0460930637     0.4507561391    -2.9408937950
   19      C      -2.5539008153    -0.6246427919    -1.0619549373
   20      C      -2.0547539190    -0.5816193842    -2.5581925369
   21      C      -0.2152742640     0.1692046648    -0.2571863289
   22      H       0.1035209586    -0.0168150440     1.9956689081
   23      O       1.5252452577     1.0305802578     0.7755103308
   24      C       0.6559656641    -0.2262873236     1.0530061600
   25      H      -2.7576410546    -1.1693718939    -3.1682640871
   26      C      -2.3605170702    -2.0920080791    -0.5018328951
   27      H      -2.7556926351    -2.1794445279     0.5218349512
   28      H      -1.0555154233    -1.0251889724    -2.6845702486
   29      H       0.0576034489    -0.4565185078    -1.1327999960
   30      H      -2.9118608507    -2.7897889416    -1.1507340690
   31      C       1.4066051723    -1.5492262971     1.1503421672
   32      H      -1.2999029684    -2.3872717121    -0.5030939676
   33      C       1.1621568307    -2.3172589917     2.4528201547
   34      H       2.2797242491    -1.3883888601    -0.8181983205
   35      C       2.2149246584    -1.9934104460     0.1046647050
   36      C       3.0027486990    -3.2169792620     0.1105667707
   37      H       2.9997410006    -3.8452201498     1.0149043651
   38      H       3.7943134021    -3.0134497197    -1.9093621942
   39      C       3.7522429439    -3.6102878734    -0.9811147224
   40      H       4.3373633010    -4.5471945384    -0.9605878641
   41      H       1.6703634640    -3.2907533628     2.4575430004
   42      H       0.0785187683    -2.4865863792     2.5953064929
   43      H       1.5208880547    -1.7217045173     3.3138159252
 ----------------------------------------------------------------

                    Orbital Energies (a.u.)
 --------------------------------------------------------------
 Requested basis set is STO-3G
 There are 65 shells and 132 basis functions

 Alpha MOs
 -- Occupied --
******* -30.218 -26.655 -26.654 -26.653 -19.351 -19.350 -10.426
-10.422 -10.353 -10.345 -10.339 -10.325 -10.320 -10.315 -10.292
-10.290 -10.284 -10.270 -10.243 -10.239 -10.236 -10.234  -4.116
 -2.918  -2.915  -2.912  -1.441  -1.197  -1.101  -1.073  -1.037
 -1.005  -0.997  -0.956  -0.935  -0.925  -0.885  -0.880  -0.878
 -0.845  -0.810  -0.799  -0.786  -0.779  -0.766  -0.753  -0.709
 -0.702  -0.692  -0.686  -0.682  -0.674  -0.673  -0.671  -0.666
 -0.661  -0.656  -0.651  -0.649  -0.642  -0.640  -0.629  -0.626
 -0.620  -0.617  -0.615  -0.607  -0.601  -0.592  -0.583  -0.577
 -0.562  -0.555  -0.550  -0.546  -0.522  -0.510  -0.507  -0.498
 -0.474  -0.446

 Beta MOs
 -- Occupied --
******* -30.166 -26.610 -26.609 -26.608 -19.352 -19.351 -10.426
-10.422 -10.355 -10.346 -10.341 -10.327 -10.320 -10.318 -10.292
-10.290 -10.284 -10.270 -10.244 -10.240 -10.236 -10.234  -3.841
 -2.619  -2.618  -2.617  -1.442  -1.198  -1.106  -1.079  -1.040
 -1.009  -1.001  -0.958  -0.940  -0.927  -0.887  -0.882  -0.879
 -0.848  -0.811  -0.800  -0.787  -0.780  -0.767  -0.754  -0.710
 -0.702  -0.690  -0.681  -0.676  -0.661  -0.658  -0.655  -0.645
 -0.644  -0.634  -0.627  -0.622  -0.619  -0.618  -0.609  -0.603
 -0.594  -0.585  -0.578  -0.568  -0.562  -0.553  -0.548  -0.526
 -0.512  -0.508  -0.499  -0.481  -0.479  -0.462

          Ground-State Mulliken Net Atomic Charges

     Atom                 Charge (a.u.)    Spin (a.u.)
  --------------------------------------------------------
      1 Fe                    0.608145       4.922106
      2 H                     0.126835      -0.017326
      3 H                     0.135296      -0.007717
      4 H                     0.119195      -0.005064
      5 C                    -0.138449       0.003849
      6 C                    -0.237373       0.008562
      7 H                     0.113809      -0.000176
      8 H                     0.125704      -0.011229
      9 C                    -0.131725      -0.004081
     10 C                     0.091113      -0.175009
     11 H                     0.086718      -0.000652
     12 H                     0.091171      -0.000418
     13 C                    -0.133173      -0.001629
     14 H                     0.087905      -0.000099
     15 C                     0.024705      -0.197238
     16 H                     0.104640      -0.000121
     17 O                    -0.063611      -0.022196
     18 H                     0.091095       0.000004
     19 C                     0.029893       0.001725
     20 C                    -0.220637      -0.013841
     21 C                     0.030075       0.014649
     22 H                     0.148055      -0.000303
     23 O                    -0.073183      -0.019628
     24 C                     0.031880       0.009912
     25 H                     0.113646      -0.000832
     26 C                    -0.218649      -0.023186
     27 H                     0.090681       0.000447
     28 H                     0.069151       0.000631
     29 H                     0.133605      -0.002622
     30 H                     0.112770      -0.001621
     31 C                     0.044551      -0.154499
     32 H                     0.063979       0.000891
     33 C                    -0.225327       0.005925
     34 H                     0.093840       0.002066
     35 C                    -0.032152      -0.043933
     36 C                    -0.038099      -0.011417
     37 H                     0.135849       0.000599
     38 H                     0.131813       0.011600
     39 C                    -0.049594      -0.262466
     40 H                     0.159288       0.011731
     41 H                     0.120271      -0.000221
     42 H                     0.120569      -0.007879
     43 H                     0.125108      -0.009518
  --------------------------------------------------------
  Sum of atomic charges =     1.999381

                    Cartesian Multipole Moments
 -----------------------------------------------------------------
    Charge (ESU x 10^10)
                 9.6034
    Dipole Moment (Debye)
         X       4.9113      Y      -2.3179      Z       0.7049
       Tot       5.4764
    Quadrupole Moments (Debye-Ang)
        XX     -48.0771     XY     -22.3923     YY     -70.9591
        XZ      -5.8153     YZ       2.2292     ZZ     -98.3559

 Total job time:  399.16s(wall), 4754.70s(cpu)
        *  Thank you very much for using Q-Chem.  Have a nice day.  *
