 Q-Chem 5.1, Q-Chem, Inc., Pleasanton, CA (2018)
 Q-Chem 5.1.1 for Intel X86 EM64T Linux

User input:
--------------------------------------------------------------
$molecule
2 5
Fe        -1.48203       -2.97884        2.14400
O         -1.78534       -1.64464        1.38236
O         -1.47820       -0.25246        1.75386
H          2.30879        2.78091       -0.17997
H          2.60051        2.98392        1.58294
C          2.00753        2.43039        0.82753
H          0.94117        2.68837        0.97989
H          4.29572        1.86721       -0.75950
H          4.31019        1.30948        1.74628
C          4.48933        0.83559       -0.39729
C          2.28123        0.87499        1.01127
C          3.85000        0.61673        1.01083
H          5.59065        0.69678       -0.34829
H         -2.66904       -1.15803       -0.81904
H          2.29230        0.90844        3.21769
C          1.73933        0.37465        2.41894
C          1.58824        0.04611       -0.16164
H          4.01465        0.13162       -2.47143
H          0.66049        0.57421        2.55929
C          3.89834       -0.20280       -1.40519
C          0.18752       -0.12829       -0.30077
C         -2.79885       -0.15173       -1.27137
C          2.41895       -0.56730       -1.22519
H         -2.32176       -0.15600       -2.27793
H          0.86112       -1.53219       -2.51330
H         -3.88264        0.02813       -1.41334
H          4.05271       -0.42144        1.35435
C          1.91985       -1.64962       -2.20746
H          2.02124       -2.64231       -1.69920
C         -0.93709        0.57554        0.47482
H          1.92332       -0.71221        2.54074
H          4.45992       -1.17660       -1.36549
C         -2.17671        0.93220       -0.36419
H          2.56536       -1.67035       -3.10970
H         -4.44146        2.10524       -1.59469
C         -2.70854        2.22602       -0.20293
C         -3.89072        2.75735       -0.88749
H         -2.19186        2.92503        0.49066
C         -4.33511        4.05548       -0.66966
H         -5.23514        4.44956       -1.18833
H         -3.81157        4.74378        0.02806
H         -0.18126       -0.74128       -1.14935
H         -0.56025        1.46656        1.03528
$end

$rem
JOBTYPE    freq
BASIS      sto-3g
METHOD     BLYP
$end

--------------------------------------------------------------

   42   -2013.9891111925      4.13e-09  Convergence criterion met
 Total energy in the final basis set =    -2013.9891111925
 Frequency:       -91.97                 -57.39                  22.81
 Force Cnst:      0.0053                 0.0255                 0.0015
 Red. Mass:       1.0595                13.1154                 4.7564
 IR Intens:        0.975                  0.356                  0.565
 Frequency:        28.09                  44.73                  44.85
 Force Cnst:      0.0020                 0.0035                 0.0057
 Red. Mass:       4.2649                 2.9515                 4.8101
 IR Intens:        0.292                  2.237                  0.870
 Frequency:        64.18                  73.40                  82.67
 Force Cnst:      0.0077                 0.0104                 0.0079
 Red. Mass:       3.1611                 3.2840                 1.9584
 IR Intens:        2.027                  2.474                  2.846
 Frequency:        94.98                 112.39                 129.29
 Force Cnst:      0.0095                 0.0101                 0.0206
 Red. Mass:       1.7862                 1.3589                 2.0903
 IR Intens:        3.874                  1.112                  0.956
 Frequency:       147.65                 162.76                 170.47
 Force Cnst:      0.0395                 0.0340                 0.0439
 Red. Mass:       3.0728                 2.1778                 2.5621
 IR Intens:        1.495                  6.127                  2.231
 Frequency:       178.81                 180.59                 211.63
 Force Cnst:      0.0468                 0.0414                 0.0697
 Red. Mass:       2.4847                 2.1569                 2.6400
 IR Intens:        1.977                  0.242                  5.858
 Frequency:       222.50                 247.22                 262.41
 Force Cnst:      0.0945                 0.0690                 0.1092
 Red. Mass:       3.2414                 1.9173                 2.6915
 IR Intens:       10.533                  0.129                  0.962
 Frequency:       292.63                 313.16                 325.90
 Force Cnst:      0.1534                 0.1969                 0.1722
 Red. Mass:       3.0398                 3.4069                 2.7514
 IR Intens:       12.059                  2.816                  5.136
 Frequency:       364.98                 376.49                 393.36
 Force Cnst:      0.2154                 0.2168                 0.2564
 Red. Mass:       2.7438                 2.5961                 2.8121
 IR Intens:        0.745                  1.393                  0.357
 Frequency:       424.47                 443.84                 462.55
 Force Cnst:      0.2714                 0.3363                 0.4500
 Red. Mass:       2.5571                 2.8979                 3.5699
 IR Intens:        1.249                  0.889                  0.318
 Frequency:       476.80                 508.01                 556.06
 Force Cnst:      0.5034                 0.5302                 0.4717
 Red. Mass:       3.7583                 3.4871                 2.5894
 IR Intens:        2.846                 26.494                 11.924
 Frequency:       574.83                 600.04                 615.73
 Force Cnst:      0.5767                 0.7511                 0.3212
 Red. Mass:       2.9623                 3.5407                 1.4380
 IR Intens:        2.002                  4.089                  1.142
 Frequency:       629.77                 685.63                 705.75
 Force Cnst:      0.6818                 1.2212                 1.3378
 Red. Mass:       2.9179                 4.4091                 4.5586
 IR Intens:        1.886                  7.143                  8.100
 Frequency:       749.48                 798.47                 817.52
 Force Cnst:      2.5923                 0.6745                 1.3027
 Red. Mass:       7.8328                 1.7956                 3.3082
 IR Intens:       17.763                  7.611                  4.405
 Frequency:       855.74                 867.63                 880.32
 Force Cnst:      1.2440                 1.0430                 0.7820
 Red. Mass:       2.8834                 2.3515                 1.7126
 IR Intens:        6.159                  8.834                  7.171
 Frequency:       911.60                 920.59                 965.78
 Force Cnst:      0.7282                 1.0607                 1.0617
 Red. Mass:       1.4873                 2.1242                 1.9319
 IR Intens:        2.060                  5.042                 19.888
 Frequency:       979.64                 983.64                 985.06
 Force Cnst:      1.1648                 0.9499                 0.8481
 Red. Mass:       2.0599                 1.6663                 1.4835
 IR Intens:        1.714                 10.557                  7.769
 Frequency:       994.56                1004.15                1007.45
 Force Cnst:      2.0364                 0.8362                 0.6675
 Red. Mass:       3.4943                 1.4076                 1.1163
 IR Intens:        6.393                 23.112                 15.756
 Frequency:      1019.37                1050.08                1062.03
 Force Cnst:      1.0107                 1.1570                 1.0640
 Red. Mass:       1.6508                 1.7809                 1.6010
 IR Intens:        6.054                 33.535                  1.535
 Frequency:      1064.55                1082.50                1094.34
 Force Cnst:      0.9842                 0.9808                 1.1362
 Red. Mass:       1.4740                 1.4206                 1.6102
 IR Intens:        7.343                 11.896                  0.875
 Frequency:      1105.21                1122.75                1185.77
 Force Cnst:      2.2947                 1.3566                 1.2256
 Red. Mass:       3.1884                 1.8265                 1.4795
 IR Intens:       30.652                 19.593                 19.800
 Frequency:      1195.49                1218.54                1229.67
 Force Cnst:      1.7837                 1.7748                 2.2301
 Red. Mass:       2.1182                 2.0287                 2.5032
 IR Intens:       14.887                 47.693                 18.716
 Frequency:      1254.36                1261.53                1265.49
 Force Cnst:      1.2094                 1.7066                 1.7600
 Red. Mass:       1.3046                 1.8200                 1.8653
 IR Intens:       11.645                 27.194                102.945
 Frequency:      1272.22                1295.53                1306.12
 Force Cnst:      1.7348                 1.7503                 1.5451
 Red. Mass:       1.8192                 1.7700                 1.5372
 IR Intens:       26.754                 42.196                128.068
 Frequency:      1334.43                1338.03                1359.60
 Force Cnst:      1.5519                 1.5706                 2.5115
 Red. Mass:       1.4792                 1.4889                 2.3060
 IR Intens:      179.873                182.575                576.869
 Frequency:      1393.53                1401.81                1432.59
 Force Cnst:      1.9551                 1.8028                 2.0264
 Red. Mass:       1.7088                 1.5571                 1.6758
 IR Intens:       49.396                211.327                 51.502
 Frequency:      1444.01                1457.73                1473.68
 Force Cnst:      2.0248                 1.8574                 1.5138
 Red. Mass:       1.6481                 1.4835                 1.1831
 IR Intens:       65.056                  4.573                 35.641
 Frequency:      1480.97                1504.84                1505.54
 Force Cnst:      2.3962                 1.6368                 1.5974
 Red. Mass:       1.8543                 1.2268                 1.1962
 IR Intens:        3.494                 26.069                106.116
 Frequency:      1514.71                1528.81                1538.66
 Force Cnst:      1.6181                 2.5235                 2.0521
 Red. Mass:       1.1970                 1.8325                 1.4711
 IR Intens:        1.865                176.239                126.740
 Frequency:      1561.24                1563.97                1599.51
 Force Cnst:      1.8812                 2.2749                 1.6845
 Red. Mass:       1.3099                 1.5785                 1.1175
 IR Intens:       46.767                 66.221                  4.934
 Frequency:      1601.03                1604.29                1608.58
 Force Cnst:      1.6317                 1.6112                 2.1779
 Red. Mass:       1.0804                 1.0625                 1.4286
 IR Intens:       12.520                 14.673                362.717
 Frequency:      1609.36                1621.53                1624.32
 Force Cnst:      1.6788                 2.2264                 1.8283
 Red. Mass:       1.1001                 1.4372                 1.1762
 IR Intens:        9.655                595.028                249.039
 Frequency:      1628.02                1631.85                1638.23
 Force Cnst:      1.6550                 1.6525                 1.6746
 Red. Mass:       1.0598                 1.0533                 1.0590
 IR Intens:        0.981                 11.355                  3.123
 Frequency:      3140.27                3177.54                3200.48
 Force Cnst:      6.1749                 6.2119                 6.2673
 Red. Mass:       1.0628                 1.0442                 1.0385
 IR Intens:      359.173                133.065                 16.324
 Frequency:      3205.71                3226.32                3226.95
 Force Cnst:      6.6383                 6.3601                 6.3661
 Red. Mass:       1.0964                 1.0370                 1.0376
 IR Intens:       19.818                  0.177                  8.085
 Frequency:      3254.51                3270.62                3277.54
 Force Cnst:      6.6515                 6.7067                 6.8883
 Red. Mass:       1.0659                 1.0641                 1.0883
 IR Intens:        2.174                  9.380                 12.598
 Frequency:      3285.03                3323.75                3325.68
 Force Cnst:      6.7604                 7.1085                 7.1333
 Red. Mass:       1.0633                 1.0921                 1.0947
 IR Intens:      244.123                  7.854                 10.013
 Frequency:      3336.23                3354.92                3359.23
 Force Cnst:      7.2371                 7.2302                 7.3720
 Red. Mass:       1.1036                 1.0903                 1.1088
 IR Intens:        2.975                  9.216                  0.736
 Frequency:      3368.96                3371.32                3382.14
 Force Cnst:      7.4169                 7.3440                 7.4533
 Red. Mass:       1.1091                 1.0967                 1.1059
 IR Intens:        0.696                 15.839                  1.471
 Frequency:      3382.63                3382.76                3391.41
 Force Cnst:      7.4611                 7.4473                 7.5048
 Red. Mass:       1.1067                 1.1046                 1.1075
 IR Intens:        1.215                  7.755                  5.391
 Frequency:      3392.65                3394.48                3441.51
 Force Cnst:      7.5086                 7.5120                 7.8229
 Red. Mass:       1.1072                 1.1065                 1.1210
 IR Intens:        1.381                  2.392                 25.048

 STANDARD THERMODYNAMIC QUANTITIES AT   298.15 K  AND     1.00 ATM

   This Molecule has  2 Imaginary Frequencies
   Zero point vibrational energy:      238.041 kcal/mol

   Atom    1 Element Fe Has Mass   55.93490
   Atom    2 Element O  Has Mass   15.99491
   Atom    3 Element O  Has Mass   15.99491
   Atom    4 Element H  Has Mass    1.00783
   Atom    5 Element H  Has Mass    1.00783
   Atom    6 Element C  Has Mass   12.00000
   Atom    7 Element H  Has Mass    1.00783
   Atom    8 Element H  Has Mass    1.00783
   Atom    9 Element H  Has Mass    1.00783
   Atom   10 Element C  Has Mass   12.00000
   Atom   11 Element C  Has Mass   12.00000
   Atom   12 Element C  Has Mass   12.00000
   Atom   13 Element H  Has Mass    1.00783
   Atom   14 Element H  Has Mass    1.00783
   Atom   15 Element H  Has Mass    1.00783
   Atom   16 Element C  Has Mass   12.00000
   Atom   17 Element C  Has Mass   12.00000
   Atom   18 Element H  Has Mass    1.00783
   Atom   19 Element H  Has Mass    1.00783
   Atom   20 Element C  Has Mass   12.00000
   Atom   21 Element C  Has Mass   12.00000
   Atom   22 Element C  Has Mass   12.00000
   Atom   23 Element C  Has Mass   12.00000
   Atom   24 Element H  Has Mass    1.00783
   Atom   25 Element H  Has Mass    1.00783
   Atom   26 Element H  Has Mass    1.00783
   Atom   27 Element H  Has Mass    1.00783
   Atom   28 Element C  Has Mass   12.00000
   Atom   29 Element H  Has Mass    1.00783
   Atom   30 Element C  Has Mass   12.00000
   Atom   31 Element H  Has Mass    1.00783
   Atom   32 Element H  Has Mass    1.00783
   Atom   33 Element C  Has Mass   12.00000
   Atom   34 Element H  Has Mass    1.00783
   Atom   35 Element H  Has Mass    1.00783
   Atom   36 Element C  Has Mass   12.00000
   Atom   37 Element C  Has Mass   12.00000
   Atom   38 Element H  Has Mass    1.00783
   Atom   39 Element C  Has Mass   12.00000
   Atom   40 Element H  Has Mass    1.00783
   Atom   41 Element H  Has Mass    1.00783
   Atom   42 Element H  Has Mass    1.00783
   Atom   43 Element H  Has Mass    1.00783
   Molecular Mass:   304.112640 amu
   Principal axes and moments of inertia in amu*Bohr^2:
                             1           2           3
    Eigenvalues --     6178.99115  8766.86612 11857.06894
          X               0.99822    -0.05920     0.00672
          Y               0.05904     0.99803     0.02127
          Z              -0.00797    -0.02084     0.99975
   Rotational Symmetry Number is   1
   The Molecule is an Asymmetric Top
   Translational Enthalpy:        0.889 kcal/mol
   Rotational Enthalpy:           0.889 kcal/mol
   Vibrational Enthalpy:        249.888 kcal/mol
   gas constant (RT):             0.592 kcal/mol
   Translational Entropy:        43.033  cal/mol.K
   Rotational Entropy:           34.817  cal/mol.K
   Vibrational Entropy:          81.284  cal/mol.K

   Total Enthalpy:              252.258 kcal/mol
   Total Entropy:               159.134  cal/mol.K

 Total job time:  1280.59s(wall), 9341.51s(cpu)
        *  Thank you very much for using Q-Chem.  Have a nice day.  *
 Q-Chem 5.1, Q-Chem, Inc., Pleasanton, CA (2018)
 Q-Chem 5.1.1 for Intel X86 EM64T Linux

User input:
--------------------------------------------------------------

$molecule
read
$end

$rem
JOBTYPE            rpath
BASIS              sto-3g
METHOD             BLYP
SCF_GUESS          read
RPATH_MAX_CYCLES   30
$end
--------------------------------------------------------------

    3   -2013.9891111913      5.30e-09  Convergence criterion met
 Total energy in the final basis set =    -2013.9891111913
   18   -2013.9892983951      3.39e-09  Convergence criterion met
 Total energy in the final basis set =    -2013.9892983951
   19   -2013.9879710608      6.25e-09  Convergence criterion met
 Total energy in the final basis set =    -2013.9879710608
   18   -2013.9893024172      9.34e-09  Convergence criterion met
 Total energy in the final basis set =    -2013.9893024172
   16   -2013.9885033569      9.02e-09  Convergence criterion met
 Total energy in the final basis set =    -2013.9885033569
   18   -2013.9893234864      4.53e-09  Convergence criterion met
 Total energy in the final basis set =    -2013.9893234864
   15   -2013.9893034901      5.32e-09  Convergence criterion met
 Total energy in the final basis set =    -2013.9893034901
   14   -2013.9893305986      9.86e-09  Convergence criterion met
 Total energy in the final basis set =    -2013.9893305986
   17   -2013.9891111913      9.25e-09  Convergence criterion met
 Total energy in the final basis set =    -2013.9891111913
   17   -2013.9890105283      8.75e-09  Convergence criterion met
 Total energy in the final basis set =    -2013.9890105283
   16   -2013.9890551483      7.33e-09  Convergence criterion met
 Total energy in the final basis set =    -2013.9890551483

             Standard Nuclear Orientation (Angstroms)
    I     Atom           X                Y                Z
 ----------------------------------------------------------------
    1      Fe     -1.2362734978    -3.5977386200     0.2717107531
    2      O      -1.6243433880    -2.0904194468     0.0959435402
    3      O      -1.4907423501    -0.9628975920     1.0351280758
    4      H       2.0338337895     2.8879005665     0.8625203787
    5      H       2.2221582773     2.3545387449     2.5696365848
    6      C       1.7266221585     2.1245118716     1.6051724093
    7      H       0.6329828571     2.2102777522     1.7584281087
    8      H       4.1313380762     2.4603971053     0.1300306706
    9      H       4.0921266839     0.9057255102     2.1725295232
   10      C       4.4177554909     1.3906860332     0.0487611774
   11      C       2.1566956720     0.6623166302     1.1524678436
   12      C       3.7424750311     0.5518231530     1.1800299993
   13      H       5.5242510701     1.3309464286     0.1303911935
   14      H      -2.4593908821    -0.7959022325    -1.7714669004
   15      H       2.0639663668    -0.2324052055     3.1674928218
   16      C       1.6082200907    -0.4233281077     2.1752470610
   17      C       1.6104013443     0.3506138252    -0.3128974862
   18      H       4.1155497406     1.5872099171    -2.1632708081
   19      H       0.5089454329    -0.3863931947     2.2920906785
   20      C       3.9876328381     0.8282589659    -1.3448236913
   21      C       0.2441990303     0.1421206507    -0.6315631995
   22      C      -2.6758350887     0.2937210481    -1.7771637108
   23      C       2.5492108604     0.3070844476    -1.4592546773
   24      H      -2.1560232260     0.7494114837    -2.6506302868
   25      H       1.1633849042    -0.1470744893    -3.1593634689
   26      H      -3.7651345222     0.4308588795    -1.9245659250
   27      H       4.0393528091    -0.5152858895     1.0798520970
   28      C       2.2137149481    -0.2985516872    -2.8398394993
   29      H       2.3977914616    -1.4015720604    -2.7806082143
   30      C      -0.9831279913     0.3650784415     0.2657516958
   31      H       1.9019512152    -1.4428265208     1.8523568205
   32      H       4.6478828252    -0.0250004177    -1.6630201097
   33      C      -2.2148951977     0.9423297573    -0.4536659207
   34      H       2.8977821516     0.1119673929    -3.6109877488
   35      H      -4.5346198426     2.3415475556    -1.2784829228
   36      C      -2.8892314704     2.0027009200     0.1817898498
   37      C      -4.0893996459     2.6776513694    -0.3206117216
   38      H      -2.4822259851     2.3842544675     1.1437675451
   39      C      -4.6796109567     3.7253729018     0.3751682315
   40      H      -5.5923028464     4.2288273926    -0.0094108791
   41      H      -4.2647952371     4.0960962927     1.3370212772
   42      H      -0.0180764120    -0.0855191857    -1.6857178904
   43      H      -0.7297237245     0.9649831365     1.1745398188
 ----------------------------------------------------------------

   15   -2013.9890799006      9.02e-09  Convergence criterion met
 Total energy in the final basis set =    -2013.9890799006

                    Orbital Energies (a.u.)
 --------------------------------------------------------------

 Alpha MOs
 -- Occupied --
******* -29.653 -26.208 -26.207 -26.202 -18.970 -18.951 -10.121
-10.118 -10.091 -10.075 -10.052 -10.042 -10.042 -10.036 -10.032
-10.022 -10.016 -10.016  -9.987  -9.980  -9.980  -9.978  -3.841
 -2.683  -2.679  -2.672  -1.264  -1.077  -1.007  -0.968  -0.937
 -0.920  -0.901  -0.872  -0.853  -0.834  -0.817  -0.805  -0.789
 -0.743  -0.736  -0.725  -0.702  -0.690  -0.678  -0.649  -0.643
 -0.634  -0.627  -0.620  -0.607  -0.602  -0.594  -0.583  -0.578
 -0.576  -0.571  -0.566  -0.565  -0.558  -0.554  -0.549  -0.541
 -0.537  -0.532  -0.516  -0.513  -0.510  -0.510  -0.506  -0.500
 -0.499  -0.487  -0.481  -0.478  -0.472  -0.463  -0.456  -0.449
 -0.418  -0.396

 Beta MOs
 -- Occupied --
******* -29.616 -26.177 -26.175 -26.175 -18.969 -18.952 -10.120
-10.118 -10.091 -10.075 -10.053 -10.043 -10.042 -10.036 -10.032
-10.022 -10.018 -10.016  -9.987  -9.980  -9.980  -9.978  -3.645
 -2.499  -2.477  -2.472  -1.265  -1.077  -1.007  -0.969  -0.937
 -0.920  -0.903  -0.872  -0.853  -0.836  -0.817  -0.805  -0.789
 -0.741  -0.737  -0.725  -0.701  -0.688  -0.677  -0.649  -0.641
 -0.633  -0.623  -0.620  -0.606  -0.595  -0.593  -0.579  -0.578
 -0.575  -0.570  -0.566  -0.565  -0.558  -0.551  -0.542  -0.541
 -0.533  -0.523  -0.516  -0.512  -0.505  -0.500  -0.483  -0.478
 -0.471  -0.462  -0.456  -0.442  -0.427  -0.401

          Ground-State Mulliken Net Atomic Charges

     Atom                 Charge (a.u.)    Spin (a.u.)
  --------------------------------------------------------
      1 Fe                    0.635760       4.383122
      2 O                    -0.190432      -0.120794
      3 O                     0.047410      -0.014169
      4 H                     0.089470      -0.000018
      5 H                     0.108577      -0.000015
      6 C                    -0.213069       0.000442
      7 H                     0.069241      -0.000012
      8 H                     0.097422      -0.000015
      9 H                     0.105578       0.000016
     10 C                    -0.129796       0.000060
     11 C                     0.029703       0.000090
     12 C                    -0.130301      -0.000152
     13 H                     0.115298      -0.000030
     14 H                     0.091858      -0.002506
     15 H                     0.109631      -0.000136
     16 C                    -0.215715      -0.000561
     17 C                     0.021946      -0.002454
     18 H                     0.141113       0.001070
     19 H                     0.067340       0.000053
     20 C                    -0.133692      -0.002095
     21 C                    -0.011607       0.015553
     22 C                    -0.223804       0.002802
     23 C                     0.142486       0.036323
     24 H                     0.111979      -0.007546
     25 H                     0.114255       0.000641
     26 H                     0.119272      -0.000586
     27 H                     0.084314      -0.000030
     28 C                    -0.222641      -0.002281
     29 H                     0.139303       0.001566
     30 C                     0.001170       0.018689
     31 H                     0.081185       0.000022
     32 H                     0.140704       0.002113
     33 C                     0.032843      -0.105423
     34 H                     0.136794       0.000365
     35 H                     0.122005       0.000701
     36 C                    -0.027586      -0.045187
     37 C                    -0.043619      -0.015126
     38 H                     0.113299       0.001918
     39 C                    -0.057335      -0.160713
     40 H                     0.145223       0.006767
     41 H                     0.129663       0.006688
     42 H                     0.119537      -0.000513
     43 H                     0.135219       0.001363
  --------------------------------------------------------
  Sum of atomic charges =     2.000000

                    Cartesian Multipole Moments
 -----------------------------------------------------------------
    Charge (ESU x 10^10)
                 9.6064
    Dipole Moment (Debye)
         X      -2.2200      Y       0.3226      Z      -3.5010
       Tot       4.1581
    Quadrupole Moments (Debye-Ang)
        XX     -31.8721     XY     -10.0519     YY     -61.3350
        XZ      -9.3375     YZ       1.9716     ZZ     -93.4345
