 Q-Chem 5.1, Q-Chem, Inc., Pleasanton, CA (2018)
 Q-Chem 5.1.1 for Intel X86 EM64T Linux

User input:
--------------------------------------------------------------
$molecule
0 1
C         14.73675        5.00779        5.11383
C         13.51462        4.47143        5.13553
C         13.30798        3.05065        5.48434
C         12.07864        2.51936        5.49860
C         11.86379        1.09810        5.84244
C         10.63173        0.57261        5.84352
H         14.86475        6.05368        4.85389
H         15.61532        4.41568        5.35217
H         12.66149        5.09830        4.88976
H         14.16821        2.43200        5.72993
H         12.71889        0.47448        6.09339
C          6.21786       -5.23307        6.75322
C          7.45036       -4.72091        6.78623
H          6.05847       -6.27942        6.99263
H          5.36103       -4.62014        6.48877
C          7.69482       -3.30038        6.46376
C          8.93226       -2.78795        6.49190
H          8.28179       -5.36703        7.05479
C          9.17014       -1.36689        6.16428
C         10.40531       -0.84859        6.17929
H          9.77519       -3.42265        6.75592
H          8.32401       -0.73509        5.90344
H         11.25408       -1.47803        6.43713
H          9.77925        1.19864        5.58953
H          6.85298       -2.66489        6.19784
H         11.22063        3.14034        5.25079

$end

$rem
BASIS = 6-31G
METHOD  = BLYP
JOBTYPE = OPT
$end
--------------------------------------------------------------

   15    -465.2781679443      4.05e-09  Convergence criterion met
 Total energy in the final basis set =     -465.2781679443
   12    -465.2944230409      6.88e-09  Convergence criterion met
 Total energy in the final basis set =     -465.2944230409
   12    -465.2955997934      7.52e-09  Convergence criterion met
 Total energy in the final basis set =     -465.2955997934
   11    -465.2956825096      4.21e-09  Convergence criterion met
 Total energy in the final basis set =     -465.2956825096

             Standard Nuclear Orientation (Angstroms)
    I     Atom           X                Y                Z
 ----------------------------------------------------------------
    1      C       6.8479551919    -0.2457358074    -0.0028533336
    2      C       5.6385747966     0.3814285011    -0.0021183955
    3      C       4.3547721101    -0.2952304105    -0.0032012416
    4      C       3.1362399182     0.3476895321    -0.0024395285
    5      C       1.8586369179    -0.3157933632    -0.0034503458
    6      C       0.6383499045     0.3326730277    -0.0026195977
    7      H       7.7867320045     0.3121310208    -0.0019558907
    8      H       6.9288968011    -1.3373259366    -0.0043753758
    9      H       5.6099489003     1.4794047361    -0.0005717403
   10      H       4.3728166839    -1.3933980487    -0.0047050582
   11      H       1.8669392451    -1.4142253229    -0.0049399124
   12      C      -6.8475295565     0.2525093443    -0.0021537754
   13      C      -5.6383836464    -0.3751172290    -0.0032474108
   14      H      -7.7864988563    -0.3050381777    -0.0028353056
   15      H      -6.9281109299     1.3441245130    -0.0005099787
   16      C      -4.3543136081     0.3009894238    -0.0024358233
   17      C      -3.1360167254    -0.3424121588    -0.0034570453
   18      H      -5.6102398252    -1.4731085439    -0.0048505359
   19      C      -1.8582280895     0.3206808460    -0.0026186475
   20      C      -0.6380394114    -0.3279877947    -0.0035399553
   21      H      -3.1256321423    -1.4411213698    -0.0049829805
   22      H      -1.8662508343     1.4191219463    -0.0010732572
   23      H      -0.6310393327    -1.4265554467    -0.0050274433
   24      H       0.6312480170     1.4312480335    -0.0010794752
   25      H      -4.3718660714     1.3991678823    -0.0008570232
   26      H       3.1254380578     1.4463989622    -0.0009012316
 ----------------------------------------------------------------

    9    -465.2956854634      7.01e-09  Convergence criterion met
 Total energy in the final basis set =     -465.2956854634
 Final energy is   -465.295685463436
 **  OPTIMIZATION CONVERGED  **

                    Orbital Energies (a.u.)
 --------------------------------------------------------------

 Alpha MOs
 -- Occupied --
 -9.927  -9.927  -9.927  -9.927  -9.927  -9.927  -9.927  -9.927
 -9.926  -9.926  -9.916  -9.916  -0.741  -0.729  -0.711  -0.687
 -0.657  -0.623  -0.571  -0.529  -0.501  -0.494  -0.490  -0.482
 -0.429  -0.419  -0.407  -0.391  -0.374  -0.362  -0.342  -0.337
 -0.323  -0.318  -0.308  -0.303  -0.301  -0.298  -0.288  -0.265
 -0.235  -0.197  -0.154

          Ground-State Mulliken Net Atomic Charges

     Atom                 Charge (a.u.)
  ----------------------------------------
      1 C                    -0.281770
      2 C                    -0.038470
      3 C                    -0.090494
      4 C                    -0.092062
      5 C                    -0.092203
      6 C                    -0.092545
      7 H                     0.109632
      8 H                     0.109073
      9 H                     0.095263
     10 H                     0.092957
     11 H                     0.093540
     12 C                    -0.281762
     13 C                    -0.038480
     14 H                     0.109633
     15 H                     0.109076
     16 C                    -0.090498
     17 C                    -0.092030
     18 H                     0.095265
     19 C                    -0.092250
     20 C                    -0.092486
     21 H                     0.093673
     22 H                     0.093539
     23 H                     0.093387
     24 H                     0.093383
     25 H                     0.092959
     26 H                     0.093669
  ----------------------------------------
  Sum of atomic charges =    -0.000000

                    Cartesian Multipole Moments
 -----------------------------------------------------------------
    Charge (ESU x 10^10)
                -0.0000
    Dipole Moment (Debye)
         X      -0.0004      Y      -0.0001      Z       0.0002
       Tot       0.0005
    Quadrupole Moments (Debye-Ang)
        XX     -67.9536     XY       0.3672     YY     -65.7273
        XZ       0.0004     YZ       0.0197     ZZ     -79.7602

 Total job time:  36.92s(wall), 147.17s(cpu)
        *  Thank you very much for using Q-Chem.  Have a nice day.  *
