 Q-Chem 5.1, Q-Chem, Inc., Pleasanton, CA (2018)
 Q-Chem 5.1.1 for Intel X86 EM64T Linux

User input:
--------------------------------------------------------------
$molecule
0 1
C         -1.02580        3.94643       -1.21634
C         -1.40341        2.88364       -0.48140
C         -0.40004        2.13360        0.32160
C         -0.64242        1.05168        1.10541
C          0.52511        0.45257        1.82807
C          0.43989       -0.63435        2.62338
H         -2.43976        2.58771       -0.48559
H          0.62294        2.50031        0.26437
H          1.49339        0.90554        1.65463
C          1.59541       -1.29834        3.32999
H         -0.51809       -1.12987        2.69321
C          2.67214       -0.61644        3.86660
C          3.81705       -1.33563        4.56380
C          3.47503       -2.75080        5.01588
H          4.13101       -0.78740        5.47893
H          4.68109       -1.33937        3.86414
C          2.85413       -3.48887        3.85151
H          2.77248       -2.72873        5.87371
H          4.40496       -3.25611        5.35529
C          1.50120       -2.84489        3.43372
H          2.70826       -4.56363        4.09878
H          3.58530       -3.44066        3.01179
C          2.82187        0.89257        3.90978
H          1.93440        1.47302        3.61768
H          3.70310        1.20404        3.31080
H          2.98712        1.20457        4.96262
C          0.39305       -3.21724        4.44904
H          0.59138       -2.78137        5.44892
H          0.31763       -4.32065        4.55798
H         -0.60210       -2.85187        4.12391
C          1.13993       -3.46804        2.06236
H          1.90323       -3.20261        1.29911
H          0.15258       -3.12108        1.69350
H          1.08904       -4.57639        2.13553
C         -1.96213        4.76005       -2.05407
C         -1.43476        5.80602       -2.73940
C         -2.17756        6.74043       -3.62673
C         -1.53595        7.74190       -4.24805
H         -3.24124        6.63887       -3.79249
H         -0.36711        5.99241       -2.64065
H          0.02380        4.23277       -1.20142
C         -2.26898        8.68112       -5.13688
C         -1.69357        9.71601       -5.79552
C         -2.58680       10.56371       -6.65153
C         -2.19998       11.63159       -7.37378
H         -1.17212       11.95453       -7.37713
H         -3.63931       10.29008       -6.69042
C         -3.19174       12.38922       -8.18456
C         -2.89884       13.47776       -8.94119
H         -4.21878       12.03122       -8.15670
C         -4.03793       14.11440       -9.69535
H         -0.46798        7.85925       -4.09277
H         -3.33744        8.51305       -5.25556
C         -3.93922       15.19978      -10.49735
H         -4.97420       13.62541       -9.54977
C         -5.01254       15.92413      -11.30557
H         -2.96053       15.60859      -10.58089
C         -6.36335       15.60308      -11.34444
C         -7.32683       16.49622      -12.13060
C         -7.04592       17.92084      -11.69092
H         -8.38740       16.25029      -11.91165
H         -7.23097       16.40850      -13.22351
C         -4.57297       17.14949      -12.16993
C         -7.01274       14.47507      -10.58083
H         -8.10862       14.42675      -10.74616
H         -6.87510       14.62493       -9.48996
H         -6.61326       13.50166      -10.93324
C         -4.46358       16.66798      -13.64539
H         -5.37444       16.22652      -14.07213
H         -3.68291       15.88030      -13.72663
H         -4.16650       17.50581      -14.31310
C         -3.17498       17.74034      -11.84036
H         -3.12884       18.06291      -10.77779
H         -2.96976       18.63052      -12.47495
H         -2.34931       17.02591      -12.04277
C         -5.59897       18.33295      -12.02933
H         -7.17170       17.92660      -10.58321
H         -7.76407       18.66201      -12.10259
H         -5.31064       19.04429      -11.22293
H         -5.57133       18.92212      -12.97233
C         -1.46853       13.99107       -8.98995
H         -1.30133       14.87717       -9.62151
H         -0.80243       13.19444       -9.38375
H         -1.13993       14.26911       -7.96618
C         -0.20552        9.97561       -5.64889
H          0.16827       10.83854       -6.22338
H          0.36336        9.08744       -5.99652
H          0.03520       10.17030       -4.58238
C         -3.43184        4.38632       -2.09887
H         -4.06079        5.02908       -2.73555
H         -3.85473        4.43663       -1.07362
H         -3.53550        3.35059       -2.48491
C         -2.01905        0.43727        1.27962
H         -2.83084        0.93357        0.72440
H         -2.29977        0.46645        2.35337
H         -1.99670       -0.61850        0.93703
$end

$rem
BASIS = 6-31G
METHOD  = BLYP
JOBTYPE = OPT
$end
--------------------------------------------------------------

   16   -1556.6230108574      9.37e-09  Convergence criterion met
 Total energy in the final basis set =    -1556.6230108574
   13   -1556.6506796759      5.28e-09  Convergence criterion met
 Total energy in the final basis set =    -1556.6506796759
   13   -1556.6618194561      5.20e-09  Convergence criterion met
 Total energy in the final basis set =    -1556.6618194561
   13   -1556.6636808540      3.93e-09  Convergence criterion met
 Total energy in the final basis set =    -1556.6636808540
   14   -1556.6643810698      3.24e-09  Convergence criterion met
 Total energy in the final basis set =    -1556.6643810698
   14   -1556.6646535337      3.83e-09  Convergence criterion met
 Total energy in the final basis set =    -1556.6646535337
   13   -1556.6649574556      9.31e-09  Convergence criterion met
 Total energy in the final basis set =    -1556.6649574556
   13   -1556.6651412160      7.18e-09  Convergence criterion met
   11   -1556.6784525340      6.32e-09  Convergence criterion met
 Total energy in the final basis set =    -1556.6784525340
   11   -1556.6784786339      6.46e-09  Convergence criterion met
 Total energy in the final basis set =    -1556.6784786339
   10   -1556.6784954881      9.56e-09  Convergence criterion met
 Total energy in the final basis set =    -1556.6784954881
   11   -1556.6785073295      4.48e-09  Convergence criterion met
 Total energy in the final basis set =    -1556.6785073295
   10   -1556.6785094808      6.77e-09  Convergence criterion met
 Total energy in the final basis set =    -1556.6785094808
    9   -1556.6785105182      6.77e-09  Convergence criterion met
 Total energy in the final basis set =    -1556.6785105182

             Standard Nuclear Orientation (Angstroms)
    I     Atom           X                Y                Z
 ----------------------------------------------------------------
    1      C       4.3023504623     0.4085850899    -0.1090477136
    2      C       5.4961407561     1.0701672745    -0.3567235327
    3      C       6.7820385760     0.4507146281    -0.2059608749
    4      C       8.0400057409     1.0081785972    -0.4155816016
    5      C       9.2141846893     0.1690871395    -0.2083322725
    6      C      10.5257271694     0.5646910356    -0.3356361536
    7      H       5.4572337853     2.1128712358    -0.6849681871
    8      H       6.7619534028    -0.6005348075     0.1127935558
    9      H       9.0023190652    -0.8582662846     0.1070842490
   10      C      11.7441061666    -0.2435992929    -0.1244796321
   11      H      10.7082594373     1.6219486460    -0.5599623085
   12      C      11.8765278894    -1.5539602896    -0.5318382168
   13      C      13.1477270947    -2.3747283069    -0.2872182736
   14      C      14.3965512945    -1.5247996729     0.0423759127
   15      H      13.3415711700    -3.0087872164    -1.1737976803
   16      H      12.9553760027    -3.0882017508     0.5441294040
   17      C      14.0261195201    -0.4388074537     1.0734107257
   18      H      14.7781227505    -1.0543835168    -0.8827671701
   19      H      15.2072490995    -2.1689103231     0.4284462659
   20      C      12.9239271561     0.5419195002     0.5504082584
   21      H      14.9155042054     0.1495855797     1.3668576820
   22      H      13.6549203235    -0.9327644056     1.9931317921
   23      C      10.7964094090    -2.3294750671    -1.2805769744
   24      H      10.0683676029    -1.6681281604    -1.7724491570
   25      H      10.2288979203    -3.0036805379    -0.6081223746
   26      H      11.2592582600    -2.9749929415    -2.0491598233
   27      C      13.5543052223     1.5380702721    -0.4836058646
   28      H      13.9732019888     1.0047231496    -1.3524040806
   29      H      14.3645365629     2.1174540713    -0.0054378356
   30      H      12.8093203158     2.2585247610    -0.8625115760
   31      C      12.4080076632     1.3579952829     1.7822946318
   32      H      11.9112413603     0.6940178400     2.5102010078
   33      H      11.6863190590     2.1401021606     1.4946944931
   34      H      13.2575758181     1.8510242493     2.2888100877
   35      C       2.9700718719     0.9492888884    -0.2450133418
   36      C       1.8790310183     0.1243476210     0.0461452989
   37      C       0.4873639468     0.4363965944    -0.0358068177
   38      C      -0.5281468843    -0.4609747517     0.2832793439
   39      H       0.1893279550     1.4363281287    -0.3716079841
   40      H       2.1167408321    -0.8964185324     0.3757779771
   41      H       4.3642998101    -0.6372620553     0.2208901586
   42      C      -1.9194414016    -0.1502387649     0.1915414304
   43      C      -3.0126976233    -0.9688210140     0.4926181155
   44      C      -4.3433382800    -0.4348660217     0.3201838104
   45      C      -5.5406172178    -1.0856816059     0.5797734949
   46      H      -5.5073529648    -2.1099174440     0.9622267171
   47      H      -4.4008552357     0.5954888641    -0.0559156236
   48      C      -6.8238451352    -0.4775561851     0.3720951203
   49      C      -8.0851028267    -1.0234154197     0.5954934914
   50      H      -6.7994565841     0.5516037728    -0.0116172360
   51      C      -9.2554384659    -0.2032045612     0.3124633303
   52      H      -0.2308905846    -1.4598273021     0.6229472180
   53      H      -2.1554866239     0.8637307362    -0.1596570041
   54      C     -10.5696938119    -0.5890463121     0.4498438813
   55      H      -9.0383769155     0.7991790494    -0.0725829823
   56      C     -11.7725018230     0.2104471981     0.1412721652
   57      H     -10.7549253400    -1.6235293305     0.7546275118
   58      C     -11.8665538016     1.5664275640     0.3746959340
   59      C     -13.0505150750     2.4111607647    -0.1024990706
   60      C     -13.9424502223     1.6911564792    -1.1353024615
   61      H     -12.6585946525     3.3601279880    -0.5215965090
   62      H     -13.6622842567     2.7119104610     0.7760902176
   63      C     -12.9567901703    -0.6081485755    -0.4875979018
   64      C     -10.8425659005     2.3800188666     1.1581689099
   65      H     -11.3679934336     3.0946095406     1.8204846375
   66      H     -10.2001743556     2.9907710521     0.4933992430
   67      H     -10.1844180559     1.7536068306     1.7766457899
   68      C     -13.3319782729    -1.8315929363     0.4179695933
   69      H     -13.5243154394    -1.5092377428     1.4557079335
   70      H     -12.5493649684    -2.6079467230     0.4351626536
   71      H     -14.2521399484    -2.3035980957     0.0300058422
   72      C     -12.5327713545    -1.1429761912    -1.8976097854
   73      H     -12.3428931164    -0.3152701129    -2.6020809207
   74      H     -13.3272598264    -1.7830699027    -2.3226861865
   75      H     -11.6072490448    -1.7393364842    -1.8320283920
   76      C     -14.2480845065     0.2693921766    -0.6209823216
   77      H     -13.4190433686     1.6364833340    -2.1078335785
   78      H     -14.8750972907     2.2588406130    -1.3045601978
   79      H     -14.9638744619    -0.2529620145    -1.2820892431
   80      H     -14.7320532175     0.3497167823     0.3724149510
   81      C      -8.2906923630    -2.4392122619     1.1218142466
   82      H      -8.8292232532    -2.4303445505     2.0871823872
   83      H      -7.3427526201    -2.9737994205     1.2715612378
   84      H      -8.9021357357    -3.0368584365     0.4206560624
   85      C      -2.8532292611    -2.3986529811     0.9991689509
   86      H      -3.4030585094    -3.1099158967     0.3567115371
   87      H      -3.2607816164    -2.5066167447     2.0215551257
   88      H      -1.8032668845    -2.7205566211     1.0260141234
   89      C       2.8070171490     2.3937724639    -0.7074479975
   90      H       1.7568755372     2.7157592841    -0.7191118400
   91      H       3.2110560091     2.5330576012    -1.7272805294
   92      H       3.3587127342     3.0854399246    -0.0453201526
   93      C       8.2405284566     2.4546666688    -0.8523019100
   94      H       7.2901661714     2.9897713638    -0.9840848235
   95      H       8.7932959428     2.5077367924    -1.8079498446
   96      H       8.8359000190     3.0145328705    -0.1070782018
 ----------------------------------------------------------------

    9   -1556.6785107760      2.95e-09  Convergence criterion met
 Total energy in the final basis set =    -1556.6785107760
 Final energy is   -1556.67851077595
 **  OPTIMIZATION CONVERGED  **

                    Orbital Energies (a.u.)
 --------------------------------------------------------------

 Alpha MOs
 -- Occupied --
 -9.932  -9.932  -9.930  -9.930  -9.929  -9.928  -9.922  -9.921
 -9.920  -9.919  -9.918  -9.918  -9.917  -9.917  -9.916  -9.916
 -9.916  -9.916  -9.916  -9.916  -9.914  -9.914  -9.914  -9.913
 -9.913  -9.913  -9.913  -9.913  -9.913  -9.912  -9.910  -9.909
 -9.907  -9.907  -9.905  -9.905  -9.903  -9.903  -9.900  -9.899
 -0.753  -0.753  -0.744  -0.739  -0.731  -0.725  -0.702  -0.695
 -0.694  -0.689  -0.683  -0.669  -0.659  -0.639  -0.637  -0.625
 -0.611  -0.610  -0.603  -0.602  -0.601  -0.600  -0.593  -0.592
 -0.586  -0.562  -0.543  -0.529  -0.517  -0.505  -0.497  -0.490
 -0.479  -0.479  -0.470  -0.466  -0.458  -0.448  -0.435  -0.433
 -0.422  -0.415  -0.412  -0.408  -0.402  -0.397  -0.390  -0.389
 -0.384  -0.383  -0.374  -0.372  -0.366  -0.364  -0.364  -0.363
 -0.362  -0.362  -0.360  -0.360  -0.359  -0.356  -0.346  -0.343
 -0.341  -0.341  -0.338  -0.337  -0.335  -0.334  -0.331  -0.330
 -0.325  -0.323  -0.318  -0.316  -0.314  -0.311  -0.309  -0.306
 -0.303  -0.299  -0.297  -0.296  -0.294  -0.291  -0.290  -0.287
 -0.286  -0.286  -0.284  -0.284  -0.277  -0.271  -0.268  -0.267
 -0.258  -0.257  -0.250  -0.246  -0.244  -0.239  -0.226  -0.206
 -0.191  -0.175  -0.155  -0.132

          Ground-State Mulliken Net Atomic Charges

     Atom                 Charge (a.u.)
  ----------------------------------------
      1 C                    -0.148800
      2 C                    -0.078455
      3 C                    -0.158652
      4 C                     0.150664
      5 C                    -0.121457
      6 C                    -0.161182
      7 H                     0.094287
      8 H                     0.085371
      9 H                     0.096509
     10 C                     0.094907
     11 H                     0.096046
     12 C                     0.090847
     13 C                    -0.274219
     14 C                    -0.216815
     15 H                     0.109909
     16 H                     0.121535
     17 C                    -0.207301
     18 H                     0.114440
     19 H                     0.100605
     20 C                     0.010871
     21 H                     0.097170
     22 H                     0.105394
     23 C                    -0.439902
     24 H                     0.142536
     25 H                     0.129520
     26 H                     0.116086
     27 C                    -0.368718
     28 H                     0.121893
     29 H                     0.113133
     30 H                     0.117002
     31 C                    -0.360406
     32 H                     0.119072
     33 H                     0.112384
     34 H                     0.109089
     35 C                     0.155943
     36 C                    -0.162139
     37 C                    -0.084767
     38 C                    -0.084284
     39 H                     0.093757
     40 H                     0.087094
     41 H                     0.087230
     42 C                    -0.162486
     43 C                     0.156349
     44 C                    -0.148978
     45 C                    -0.078463
     46 H                     0.094340
     47 H                     0.087260
     48 C                    -0.158604
     49 C                     0.150332
     50 H                     0.085418
     51 C                    -0.119026
     52 H                     0.093753
     53 H                     0.087099
     54 C                    -0.161422
     55 H                     0.095600
     56 C                     0.098225
     57 H                     0.092765
     58 C                     0.091079
     59 C                    -0.279016
     60 C                    -0.216613
     61 H                     0.115091
     62 H                     0.118966
     63 C                     0.013126
     64 C                    -0.440752
     65 H                     0.118845
     66 H                     0.128135
     67 H                     0.141063
     68 C                    -0.369924
     69 H                     0.119137
     70 H                     0.115913
     71 H                     0.114357
     72 C                    -0.364491
     73 H                     0.119708
     74 H                     0.109005
     75 H                     0.120197
     76 C                    -0.210320
     77 H                     0.114915
     78 H                     0.100018
     79 H                     0.098210
     80 H                     0.104781
     81 C                    -0.450752
     82 H                     0.139545
     83 H                     0.127645
     84 H                     0.137361
     85 C                    -0.451901
     86 H                     0.138583
     87 H                     0.140212
     88 H                     0.129581
     89 C                    -0.451795
     90 H                     0.129527
     91 H                     0.140046
     92 H                     0.138790
     93 C                    -0.451839
     94 H                     0.127962
     95 H                     0.138953
     96 H                     0.138293
  ----------------------------------------
  Sum of atomic charges =    -0.000000

                    Cartesian Multipole Moments
 -----------------------------------------------------------------
    Charge (ESU x 10^10)
                -0.0000
    Dipole Moment (Debye)
         X       0.0753      Y       0.0172      Z      -0.0110
       Tot       0.0780
    Quadrupole Moments (Debye-Ang)
        XX    -216.1677     XY      -1.3780     YY    -234.9139
        XZ      -1.0920     YZ      -5.6379     ZZ    -255.5271

 Total job time:  4706.55s(wall), 18692.96s(cpu)
        *  Thank you very much for using Q-Chem.  Have a nice day.  *
