 Q-Chem 5.1, Q-Chem, Inc., Pleasanton, CA (2018)
 Q-Chem 5.1.1 for Intel X86 EM64T Linux

User input:
--------------------------------------------------------------
$molecule
0 1
C          1.09786        0.95703       -0.22304
C          1.56725       -0.16898        0.66819
C          0.88998       -1.45332        0.21777
C         -0.60454       -1.32893       -0.04619
C         -1.25817       -0.10643       -0.13569
C         -0.42922        1.21265       -0.04493
C         -2.79055        0.02159       -0.40961
C         -3.67452        0.38989        0.74818
C         -4.79269        1.39207        0.42283
C         -6.08046        0.97975        0.28022
C         -0.67544        1.90598        1.31651
C         -0.81452        2.18812       -1.18196
C         -1.27872       -2.67317       -0.22721
C         -7.21543        1.88699       -0.02986
C         -8.45821        1.41428       -0.15561
C         -4.45583        2.85586        0.27248
O         -3.45892       -1.20461       -0.40925
O         -4.15671       -0.91964        0.69060
H          1.32902        0.66606       -1.27380
H          1.67124        1.88540       -0.00517
H          1.32232        0.05121        1.72567
H          2.66924       -0.30065        0.60745
H          1.08760       -2.20737        1.01105
H          1.35327       -1.81803       -0.72538
H         -3.03666        0.55483       -1.35240
H         -3.15547        0.55164        1.71437
H         -6.32699       -0.07113        0.39524
H         -0.43938        1.24103        2.17036
H         -1.71950        2.21643        1.44538
H         -0.05725        2.82521        1.40545
H         -0.64813        1.71671       -2.17482
H         -0.20472        3.11646       -1.12946
H         -1.87386        2.49659       -1.12796
H         -0.55460       -3.51250       -0.14879
H         -1.73546       -2.74060       -1.23699
H         -2.03326       -2.84051        0.56897
H         -7.06106        2.95270       -0.16150
H         -8.67429        0.35684       -0.03508
H         -9.27556        2.09125       -0.38257
H         -3.38822        3.06106        0.42677
H         -5.01549        3.45163        1.02415
H         -4.72002        3.20227       -0.74899
$end

$rem
BASIS = 6-31G
METHOD  = B3LYP
JOBTYPE = OPT
$end
--------------------------------------------------------------

   14    -774.1702044484      8.37e-09  Convergence criterion met
 Total energy in the final basis set =     -774.1702044484
   12    -774.2095926749      7.57e-09  Convergence criterion met
 Total energy in the final basis set =     -774.2095926749
   12    -774.2222783382      7.89e-09  Convergence criterion met
 Total energy in the final basis set =     -774.2222783382
   13    -774.2232681525      5.34e-09  Convergence criterion met
 Total energy in the final basis set =     -774.2232681525
   12    -774.2269714075      5.28e-09  Convergence criterion met
 Total energy in the final basis set =     -774.2269714075
   12    -774.2280818984      8.69e-09  Convergence criterion met
 Total energy in the final basis set =     -774.2280818984
   12    -774.2291730918      5.46e-09  Convergence criterion met
 Total energy in the final basis set =     -774.2291730918
   12    -774.2301284570      6.24e-09  Convergence criterion met
   10    -774.2402301050      3.91e-09  Convergence criterion met
 Total energy in the final basis set =     -774.2402301050
   10    -774.2402475869      7.29e-09  Convergence criterion met
 Total energy in the final basis set =     -774.2402475869
   10    -774.2402541913      9.64e-09  Convergence criterion met
 Total energy in the final basis set =     -774.2402541913
   11    -774.2402599258      2.51e-09  Convergence criterion met
 Total energy in the final basis set =     -774.2402599258
   10    -774.2402628270      7.38e-09  Convergence criterion met
 Total energy in the final basis set =     -774.2402628270
   10    -774.2402642199      4.41e-09  Convergence criterion met
 Total energy in the final basis set =     -774.2402642199

             Standard Nuclear Orientation (Angstroms)
    I     Atom           X                Y                Z
 ----------------------------------------------------------------
    1      C       3.2944273103    -1.4490898548     0.5617159226
    2      C       3.7558658007    -0.8327612096    -0.7621672574
    3      C       3.5228952012     0.6803175602    -0.7087220317
    4      C       2.1321230969     1.0572170510    -0.2263171946
    5      C       1.3202620601     0.1761122299     0.4139287047
    6      C       1.7760188234    -1.2466084963     0.8260940233
    7      C      -0.1022841246     0.5067133691     0.7754745642
    8      C      -1.1313686246     1.0471424742    -0.2593080655
    9      C      -2.2514733877     0.1601933186    -0.7226267656
   10      C      -3.3591229641     0.0156024876     0.0443659464
   11      C       0.9694435270    -2.3166803617     0.0395155995
   12      C       1.5513276255    -1.4669047237     2.3494325330
   13      C       1.7752316135     2.4964174001    -0.5399348212
   14      C      -4.5331518171    -0.7931199440    -0.2495593295
   15      C      -5.6005003478    -0.8687754524     0.5683351631
   16      C      -2.0146621023    -0.4935687095    -2.0647006177
   17      O      -0.2885747125     1.7722394282     1.5982737001
   18      O      -1.5652730260     2.0936981969     0.7337786251
   19      H       3.8626529903    -0.9814924488     1.3792260664
   20      H       3.5173036377    -2.5235445637     0.6000552484
   21      H       3.1940567577    -1.2664781731    -1.6009618985
   22      H       4.8153902539    -1.0516643800    -0.9433121112
   23      H       3.6807068592     1.1342526377    -1.6978730063
   24      H       4.2696223500     1.1510737528    -0.0478115003
   25      H      -0.5695047765    -0.3049706973     1.3338884284
   26      H      -0.6444889896     1.5375247001    -1.1072072184
   27      H      -3.3916807390     0.5799788167     0.9742261774
   28      H       1.1677586993    -2.2507654983    -1.0363655095
   29      H      -0.1106406932    -2.2028738991     0.1900168804
   30      H       1.2456675486    -3.3235206373     0.3770020099
   31      H       2.0362218921    -0.6746864416     2.9307172904
   32      H       1.9896365092    -2.4274221534     2.6476611395
   33      H       0.4924563348    -1.4926508836     2.6271471017
   34      H       1.6191747062     2.6335273715    -1.6202007791
   35      H       2.6193578344     3.1454049626    -0.2684579658
   36      H       0.9005219533     2.8513857261     0.0013891833
   37      H      -4.5439330655    -1.3628744402    -1.1764735603
   38      H      -5.6397107625    -0.3167843492     1.5039168364
   39      H      -6.4643612040    -1.4800410997     0.3291223626
   40      H      -1.9226833263     0.2657227268    -2.8541982949
   41      H      -2.8188648024    -1.1742579290    -2.3500851676
   42      H      -1.0774943436    -1.0665362883    -2.0689962621
 ----------------------------------------------------------------

    8    -774.2402644722      5.54e-09  Convergence criterion met
 Total energy in the final basis set =     -774.2402644722
 Final energy is   -774.240264472200
 **  OPTIMIZATION CONVERGED  **

                    Orbital Energies (a.u.)
 --------------------------------------------------------------

 Alpha MOs
 -- Occupied --
-19.194 -19.191 -10.248 -10.246 -10.206 -10.204 -10.203 -10.192
-10.191 -10.189 -10.187 -10.186 -10.182 -10.181 -10.178 -10.175
-10.171 -10.171  -1.090  -0.893  -0.856  -0.826  -0.795  -0.784
 -0.767  -0.728  -0.696  -0.691  -0.685  -0.680  -0.627  -0.597
 -0.583  -0.566  -0.533  -0.515  -0.499  -0.483  -0.477  -0.460
 -0.454  -0.450  -0.434  -0.431  -0.423  -0.422  -0.416  -0.408
 -0.404  -0.403  -0.397  -0.388  -0.380  -0.375  -0.361  -0.358
 -0.355  -0.351  -0.344  -0.336  -0.327  -0.322  -0.317  -0.312
 -0.295  -0.244  -0.235  -0.220

          Ground-State Mulliken Net Atomic Charges

     Atom                 Charge (a.u.)
  ----------------------------------------
      1 C                    -0.241538
      2 C                    -0.252316
      3 C                    -0.307354
      4 C                     0.060455
      5 C                     0.148233
      6 C                    -0.028484
      7 C                    -0.002216
      8 C                     0.015659
      9 C                     0.114063
     10 C                    -0.159995
     11 C                    -0.409661
     12 C                    -0.403389
     13 C                    -0.489761
     14 C                    -0.055150
     15 C                    -0.312514
     16 C                    -0.479593
     17 O                    -0.291049
     18 O                    -0.304842
     19 H                     0.129002
     20 H                     0.120927
     21 H                     0.129548
     22 H                     0.125103
     23 H                     0.136919
     24 H                     0.146712
     25 H                     0.154133
     26 H                     0.149000
     27 H                     0.157050
     28 H                     0.135349
     29 H                     0.136421
     30 H                     0.133598
     31 H                     0.144502
     32 H                     0.132565
     33 H                     0.136538
     34 H                     0.139124
     35 H                     0.145646
     36 H                     0.201011
     37 H                     0.120410
     38 H                     0.135207
     39 H                     0.127786
     40 H                     0.156300
     41 H                     0.151189
     42 H                     0.155410
  ----------------------------------------
  Sum of atomic charges =    -0.000000

                    Cartesian Multipole Moments
 -----------------------------------------------------------------
    Charge (ESU x 10^10)
                -0.0000
    Dipole Moment (Debye)
         X       1.6860      Y      -2.9252      Z      -2.5636
       Tot       4.2393
    Quadrupole Moments (Debye-Ang)
        XX    -104.4306     XY       5.9661     YY    -116.7566
        XZ       1.4703     YZ      -5.1827     ZZ    -111.0349

 Total job time:  624.93s(wall), 7009.03s(cpu)
        *  Thank you very much for using Q-Chem.  Have a nice day.  *
