 Q-Chem 5.1, Q-Chem, Inc., Pleasanton, CA (2018)
 Q-Chem 5.1.1 for Intel X86 EM64T Linux

User input:
--------------------------------------------------------------
$molecule
0 1
C         -0.29308        2.85890       -1.09464
C         -0.81526        1.93416       -0.28393
C          0.06742        1.02282        0.49021
C         -0.33895        0.04839        1.34190
C          0.72170       -0.75666        2.02073
C          0.46944       -1.74845        2.88466
H         -0.94598        3.51986       -1.65587
H          0.78138        2.96856       -1.20876
H         -1.89351        1.88619       -0.22322
H          1.13750        1.16329        0.34946
H          1.76537       -0.53586        1.81089
H         -0.53874       -2.04051        3.15560
H          1.29458       -2.28844        3.33796
C         -1.79601       -0.25668        1.63218
H         -2.52186        0.37649        1.09636
H         -1.98950       -0.12402        2.71727
H         -2.01379       -1.30827        1.35075
$end

$rem
BASIS = 6-31G
METHOD  = BLYP
JOBTYPE = OPT
$end
--------------------------------------------------------------

   15    -272.5032549130      9.49e-10  Convergence criterion met
 Total energy in the final basis set =     -272.5032549130
   12    -272.5082907840      3.01e-09  Convergence criterion met
 Total energy in the final basis set =     -272.5082907840
   11    -272.5084914063      5.17e-09  Convergence criterion met
 Total energy in the final basis set =     -272.5084914063
   10    -272.5085058766      2.92e-09  Convergence criterion met
 Total energy in the final basis set =     -272.5085058766

             Standard Nuclear Orientation (Angstroms)
    I     Atom           X                Y                Z
 ----------------------------------------------------------------
    1      C       3.2397855208    -0.4392569447     0.0000000542
    2      C       2.0419320862     0.2070511752    -0.0000024010
    3      C       0.7555456778    -0.4731599100    -0.0000008971
    4      C      -0.5043542997     0.0873786330    -0.0000040534
    5      C      -1.6690745320    -0.8120168667    -0.0000024139
    6      C      -2.9773918644    -0.4456752381    -0.0000059497
    7      H       4.1879170418     0.1029136616    -0.0000015896
    8      H       3.3030850527    -1.5322249508     0.0000035167
    9      H       2.0436594580     1.3028795559    -0.0000058874
   10      H       0.8120902354    -1.5701801078     0.0000029135
   11      H      -1.4287450030    -1.8832832615     0.0000015736
   12      H      -3.3001538340     0.5986001340    -0.0000102143
   13      H      -3.7735800535    -1.1936368661    -0.0000046609
   14      C      -0.7624015003     1.5877500634    -0.0000099182
   15      H       0.1647987906     2.1772619686    -0.0000056061
   16      H      -1.3501208491     1.8855576304     0.8875170919
   17      H      -1.3501095432     1.8855527348    -0.8875461188
 ----------------------------------------------------------------

    9    -272.5085064952      4.65e-09  Convergence criterion met
 Total energy in the final basis set =     -272.5085064952
 Final energy is   -272.508506495237
 **  OPTIMIZATION CONVERGED  **

                    Orbital Energies (a.u.)
 --------------------------------------------------------------

 Alpha MOs
 -- Occupied --
 -9.933  -9.925  -9.922  -9.921  -9.915  -9.915  -9.912  -0.738
 -0.692  -0.648  -0.612  -0.545  -0.486  -0.463  -0.429  -0.397
 -0.371  -0.363  -0.347  -0.342  -0.315  -0.307  -0.285  -0.275
 -0.238  -0.172

          Ground-State Mulliken Net Atomic Charges

     Atom                 Charge (a.u.)
  ----------------------------------------
      1 C                    -0.281766
      2 C                    -0.026625
      3 C                    -0.161159
      4 C                     0.160336
      5 C                    -0.077272
      6 C                    -0.280735
      7 H                     0.107932
      8 H                     0.109178
      9 H                     0.096879
     10 H                     0.089825
     11 H                     0.093186
     12 H                     0.106699
     13 H                     0.106700
     14 C                    -0.453644
     15 H                     0.129000
     16 H                     0.140733
     17 H                     0.140733
  ----------------------------------------
  Sum of atomic charges =    -0.000000

                    Cartesian Multipole Moments
 -----------------------------------------------------------------
    Charge (ESU x 10^10)
                -0.0000
    Dipole Moment (Debye)
         X      -0.0313      Y       0.3544      Z      -0.0000
       Tot       0.3558
    Quadrupole Moments (Debye-Ang)
        XX     -41.4337     XY      -0.2239     YY     -40.1911
        XZ       0.0000     YZ      -0.0000     ZZ     -47.2823

 Total job time:  19.70s(wall), 78.35s(cpu)
        *  Thank you very much for using Q-Chem.  Have a nice day.  *
