 Q-Chem 5.1, Q-Chem, Inc., Pleasanton, CA (2018)
 Q-Chem 5.1.1 for Intel X86 EM64T Linux

User input:
--------------------------------------------------------------
$molecule
0 1
C         15.07220        4.72590        5.22463
C         13.77417        4.41390        5.22610
C         13.32031        3.03209        5.48840
C         12.01592        2.72046        5.48941
C         11.57697        1.32478        5.75523
C         10.29576        0.87854        5.78487
H         15.38416        5.74687        5.02969
H         15.83179        3.97366        5.41607
H         13.04573        5.19614        5.02999
H         14.06249        2.26109        5.68288
H         12.37120        0.60449        5.94187
C          6.56256       -5.55024        6.92460
C          7.61976       -4.73556        6.80884
H          6.72435       -6.60001        7.14837
H          5.53861       -5.22690        6.80798
C          7.56366       -3.27006        6.50475
C          8.74266       -2.60776        6.42620
H          8.59669       -5.19162        6.95044
C          8.87011       -1.15594        6.13387
C         10.08134       -0.57392        6.07317
H          9.66554       -3.16184        6.58524
H          7.97793       -0.56516        5.96890
H         10.95715       -1.19653        6.24384
H         11.30561        3.51181        5.29226
C          6.25656       -2.53119        6.28889
H          5.35907       -3.16589        6.37551
H          6.24250       -2.08707        5.27110
H          6.15580       -1.72260        7.04345
C          9.09289        1.77074        5.54302
H          9.32649        2.82773        5.33699
H          8.43770        1.75419        6.43909
H          8.52358        1.39022        4.66919

$end

$rem
BASIS = 6-31G
METHOD  = BLYP
JOBTYPE = OPT
$end
--------------------------------------------------------------

   16    -543.8364830511      5.59e-09  Convergence criterion met
 Total energy in the final basis set =     -543.8364830511
   13    -543.8499782993      8.89e-09  Convergence criterion met
 Total energy in the final basis set =     -543.8499782993
   13    -543.8510951549      2.36e-09  Convergence criterion met
 Total energy in the final basis set =     -543.8510951549
   11    -543.8511856821      7.48e-09  Convergence criterion met
 Total energy in the final basis set =     -543.8511856821

             Standard Nuclear Orientation (Angstroms)
    I     Atom           X                Y                Z
 ----------------------------------------------------------------
    1      C       7.1037554336    -0.8524348343     0.0000263312
    2      C       5.9815321339    -0.0796787758    -0.0000206499
    3      C       4.6232393290    -0.5897971257     0.0000071579
    4      C       3.4959520309     0.2047616282    -0.0000404323
    5      C       2.1514719234    -0.3071929919    -0.0000155191
    6      C       0.9599097429     0.4113980319    -0.0000525701
    7      H       8.1046860388    -0.4156480105     0.0000013759
    8      H       7.0480574264    -1.9456108674     0.0000907846
    9      H       6.0895361929     1.0133943526    -0.0000852667
   10      H       4.5021351463    -1.6813748085     0.0000706669
   11      H       2.0636987105    -1.4020439289     0.0000390068
   12      C      -6.5006498566    -0.8561472854    -0.0000400032
   13      C      -5.1596307771    -1.0908912327    -0.0000308023
   14      H      -7.2148534835    -1.6825610596    -0.0000142413
   15      H      -6.9323454318     0.1474951021    -0.0000722455
   16      C      -4.0696977634    -0.1113212569    -0.0000619721
   17      C      -2.7646665668    -0.5798855164    -0.0000335925
   18      H      -4.8268177539    -2.1377994894     0.0000045517
   19      C      -1.5657105814     0.2178752732    -0.0000584494
   20      C      -0.2925372411    -0.3207867058    -0.0000246847
   21      H      -2.6204412212    -1.6685703628     0.0000135313
   22      H      -1.6804138690     1.3059962687    -0.0001095639
   23      H      -0.2054968564    -1.4157572054     0.0000269158
   24      H       3.6413002875     1.2912500051    -0.0001035147
   25      C      -4.3734202347     1.3852150858    -0.0001203220
   26      H      -5.4531504482     1.5887945109    -0.0001409642
   27      H      -3.9453049850     1.8823567871    -0.8891860164
   28      H      -3.9453250630     1.8824223004     0.8889182742
   29      C       0.9135213451     1.9361624739    -0.0001224225
   30      H       1.9141788999     2.3887762297    -0.0001241324
   31      H       0.3756869639     2.3149666024     0.8879708445
   32      H       0.3757188082     2.3148873758    -0.8882690085
 ----------------------------------------------------------------

   10    -543.8511914825      6.83e-09  Convergence criterion met
 Total energy in the final basis set =     -543.8511914825
 Final energy is   -543.851191482494
 **  OPTIMIZATION CONVERGED  **

                    Orbital Energies (a.u.)
 --------------------------------------------------------------

 Alpha MOs
 -- Occupied --
 -9.936  -9.932  -9.926  -9.925  -9.924  -9.923  -9.922  -9.922
 -9.921  -9.918  -9.917  -9.915  -9.915  -9.911  -0.746  -0.734
 -0.716  -0.685  -0.661  -0.643  -0.615  -0.606  -0.564  -0.525
 -0.492  -0.485  -0.470  -0.455  -0.432  -0.413  -0.409  -0.388
 -0.378  -0.366  -0.363  -0.361  -0.345  -0.335  -0.333  -0.325
 -0.313  -0.310  -0.300  -0.293  -0.290  -0.287  -0.277  -0.253
 -0.231  -0.190  -0.150

          Ground-State Mulliken Net Atomic Charges

     Atom                 Charge (a.u.)
  ----------------------------------------
      1 C                    -0.282336
      2 C                    -0.039854
      3 C                    -0.088721
      4 C                    -0.084810
      5 C                    -0.159623
      6 C                     0.155038
      7 H                     0.108571
      8 H                     0.108505
      9 H                     0.093696
     10 H                     0.092622
     11 H                     0.090486
     12 C                    -0.287953
     13 C                    -0.074911
     14 H                     0.107131
     15 H                     0.109235
     16 C                     0.146227
     17 C                    -0.153486
     18 H                     0.091850
     19 C                    -0.076845
     20 C                    -0.141819
     21 H                     0.088511
     22 H                     0.094214
     23 H                     0.089531
     24 H                     0.095900
     25 C                    -0.452050
     26 H                     0.129392
     27 H                     0.140639
     28 H                     0.140640
     29 C                    -0.451224
     30 H                     0.130113
     31 H                     0.140667
     32 H                     0.140667
  ----------------------------------------
  Sum of atomic charges =    -0.000000

                    Cartesian Multipole Moments
 -----------------------------------------------------------------
    Charge (ESU x 10^10)
                -0.0000
    Dipole Moment (Debye)
         X      -0.0070      Y       0.7540      Z      -0.0000
       Tot       0.7540
    Quadrupole Moments (Debye-Ang)
        XX     -83.3919     XY      -0.9456     YY     -78.7212
        XZ       0.0000     YZ      -0.0007     ZZ     -92.4274

 Total job time:  69.36s(wall), 276.39s(cpu)
        *  Thank you very much for using Q-Chem.  Have a nice day.  *
