 Q-Chem 5.1, Q-Chem, Inc., Pleasanton, CA (2018)
 Q-Chem 5.1.1 for Intel X86 EM64T Linux

User input:
--------------------------------------------------------------
$molecule
0 1
C         -0.39835        2.82923       -1.06373
C         -0.78447        1.83448       -0.26151
C          0.20284        1.02531        0.48200
C         -0.18910        0.02810        1.28584
C          0.79821       -0.78107        2.02935
C          0.41209       -1.77584        2.83155
H         -1.14004        3.41148       -1.60093
H          0.65228        3.07218       -1.19283
H         -1.84555        1.62307       -0.15945
H          1.26213        1.24637        0.37178
H         -1.24840       -0.19296        1.39606
H          1.85929       -0.56965        1.92730
H         -0.63854       -2.01882        2.96062
H          1.15378       -2.35810        3.36873
$end

$rem
BASIS = 6-31G
METHOD  = BLYP
JOBTYPE = OPT
$end
--------------------------------------------------------------

   12    -233.2233258210      7.05e-09  Convergence criterion met
 Total energy in the final basis set =     -233.2233258210
   10    -233.2295536762      5.46e-09  Convergence criterion met
 Total energy in the final basis set =     -233.2295536762
   10    -233.2297813434      2.93e-09  Convergence criterion met
 Total energy in the final basis set =     -233.2297813434

             Standard Nuclear Orientation (Angstroms)
    I     Atom           X                Y                Z
 ----------------------------------------------------------------
    1      C       3.1056232801    -0.1928316464    -0.0000027966
    2      C       1.8851148432     0.4067028907    -0.0000033944
    3      C       0.6140393395    -0.3037546795    -0.0000035225
    4      C      -0.6140390164     0.3037558502    -0.0000037945
    5      C      -1.8851145396    -0.4067016305    -0.0000034638
    6      C      -3.1056229166     0.1928330253    -0.0000036514
    7      H       4.0325495775     0.3847011649    -0.0000029185
    8      H       3.2096239335    -1.2825233799    -0.0000021852
    9      H       1.8287826847     1.5034315379    -0.0000038472
   10      H       0.6631877778    -1.4011312067    -0.0000030505
   11      H      -0.6631873434     1.4011323461    -0.0000038901
   12      H      -1.8287824968    -1.5034302733    -0.0000029498
   13      H      -3.2096234878     1.2825247632    -0.0000038660
   14      H      -4.0325492577    -0.3846997309    -0.0000030863
 ----------------------------------------------------------------

    8    -233.2297938019      3.31e-09  Convergence criterion met
 Total energy in the final basis set =     -233.2297938019
 Final energy is   -233.229793801905
 **  OPTIMIZATION CONVERGED  **

                    Orbital Energies (a.u.)
 --------------------------------------------------------------

 Alpha MOs
 -- Occupied --
 -9.927  -9.927  -9.926  -9.925  -9.916  -9.916  -0.730  -0.692
 -0.638  -0.550  -0.493  -0.489  -0.424  -0.401  -0.374  -0.351
 -0.328  -0.311  -0.296  -0.290  -0.244  -0.175

          Ground-State Mulliken Net Atomic Charges

     Atom                 Charge (a.u.)
  ----------------------------------------
      1 C                    -0.281390
      2 C                    -0.036837
      3 C                    -0.089952
      4 C                    -0.089952
      5 C                    -0.036837
      6 C                    -0.281390
      7 H                     0.109766
      8 H                     0.109145
      9 H                     0.095761
     10 H                     0.093508
     11 H                     0.093508
     12 H                     0.095761
     13 H                     0.109145
     14 H                     0.109766
  ----------------------------------------
  Sum of atomic charges =    -0.000000

                    Cartesian Multipole Moments
 -----------------------------------------------------------------
    Charge (ESU x 10^10)
                -0.0000
    Dipole Moment (Debye)
         X       0.0000      Y      -0.0000      Z       0.0000
       Tot       0.0000
    Quadrupole Moments (Debye-Ang)
        XX     -34.2301     XY       0.1026     YY     -33.6311
        XZ      -0.0000     YZ      -0.0000     ZZ     -40.9406

 Total job time:  9.61s(wall), 38.11s(cpu)
        *  Thank you very much for using Q-Chem.  Have a nice day.  *
