 Q-Chem 5.1, Q-Chem, Inc., Pleasanton, CA (2018)
 Q-Chem 5.1.1 for Intel X86 EM64T Linux

User input:
--------------------------------------------------------------
$molecule
0 1
C         -1.05379        2.80345       -0.21475
C         -1.38361        1.85548        0.68235
C         -0.32829        1.00121        1.29117
C         -0.51849        0.01545        2.20534
C          0.69592       -0.71908        2.68480
C          0.65900       -1.73367        3.57381
H         -2.41981        1.72779        0.95007
H          0.68989        1.19848        0.96157
H          1.64507       -0.43389        2.24814
C          1.84948       -2.53022        4.04674
H         -0.31151       -2.06834        3.91186
C          3.10857       -1.99622        4.25130
C          4.27903       -2.84582        4.72281
C          3.86646       -4.16332        5.36940
H          4.88076       -2.30386        5.48490
H          4.93566       -3.02273        3.84325
C          2.88277       -4.85830        4.45541
H          3.40616       -3.98482        6.36248
H          4.77231       -4.78810        5.52565
C          1.57096       -4.03505        4.30997
H          2.65513       -5.88192        4.82677
H          3.38469       -4.97093        3.46675
C          3.47121       -0.52896        4.12066
H          2.62813        0.16593        3.99319
H          4.21271       -0.39212        3.30592
H          3.93133       -0.18918        5.07249
C          0.70570       -4.17366        5.58654
H          1.20179       -3.71985        6.46804
H          0.50771       -5.24413        5.81007
H         -0.27852       -3.67590        5.47215
C          0.80141       -4.66846        3.12424
H          1.38297       -4.56768        2.18229
H         -0.18857       -4.19235        2.96743
H          0.61742       -5.74958        3.30782
C         -2.04377        3.70924       -0.87806
C         -1.55992        4.61925       -1.76110
C         -2.35899        5.61217       -2.52862
C         -1.75686        6.46368       -3.37463
H         -3.43357        5.67279       -2.42497
H         -0.48578        4.63731       -1.93490
H         -0.00354        2.91998       -0.47411
C         -2.55572        7.45746       -4.14127
C         -2.07140        8.36948       -5.02198
C         -3.06089        9.27729       -5.68325
C         -2.73006       10.22938       -6.57555
H         -1.69356       10.35929       -6.84151
H         -4.11146        9.15955       -5.42575
C         -3.78433       11.08653       -7.18171
C         -3.59052       12.07791       -8.08778
H         -4.80423       10.88818       -6.85787
C         -4.79945       12.81595       -8.56573
C         -4.76199       13.81566       -9.45619
H         -3.83638       14.16469       -9.89949
H         -5.77522       12.53614       -8.17638
H         -5.68435       14.30377       -9.75441
H         -0.68225        6.40325       -3.47801
H         -3.62993        7.43910       -3.96794
C         -1.88151       -0.36418        2.75392
H         -2.72767        0.22235        2.36196
H         -1.88225       -0.23219        3.85626
H         -2.09149       -1.42754        2.51377
C         -3.51632        3.57262       -0.53951
H         -4.18618        4.27174       -1.06539
H         -3.66048        3.74508        0.54768
H         -3.85763        2.54724       -0.79371
C         -0.59862        8.50712       -5.35916
H          0.07092        7.80641       -4.83500
H         -0.25741        9.53173       -5.10174
H         -0.45383        8.33786       -6.44677
C         -2.22831       12.46716       -8.63016
H         -1.38068       11.88354       -8.23640
H         -2.02765       13.53163       -8.38710
H         -2.22300       12.33992       -9.73299
$end

$rem
BASIS = 6-31G
METHOD  = BLYP
JOBTYPE = OPT
$end
--------------------------------------------------------------

   16   -1205.5473103521      8.65e-09  Convergence criterion met
 Total energy in the final basis set =    -1205.5473103521
   13   -1205.5701278328      5.47e-09  Convergence criterion met
 Total energy in the final basis set =    -1205.5701278328
   13   -1205.5764500105      6.05e-09  Convergence criterion met
 Total energy in the final basis set =    -1205.5764500105
   13   -1205.5766340562      6.39e-09  Convergence criterion met
 Total energy in the final basis set =    -1205.5766340562
   13   -1205.5773368079      4.30e-09  Convergence criterion met
 Total energy in the final basis set =    -1205.5773368079
   13   -1205.5773343656      2.71e-09  Convergence criterion met
 Total energy in the final basis set =    -1205.5773343656
   12   -1205.5774999709      4.75e-09  Convergence criterion met
 Total energy in the final basis set =    -1205.5774999709
   11   -1205.5775305038      7.79e-09  Convergence criterion met
   12   -1205.5775215710      8.15e-09  Convergence criterion met
 Total energy in the final basis set =    -1205.5775215710
   12   -1205.5775548691      3.86e-09  Convergence criterion met
 Total energy in the final basis set =    -1205.5775548691
   11   -1205.5775590989      9.89e-09  Convergence criterion met
 Total energy in the final basis set =    -1205.5775590989
   10   -1205.5775666033      8.17e-09  Convergence criterion met
 Total energy in the final basis set =    -1205.5775666033
   10   -1205.5775686249      5.51e-09  Convergence criterion met
 Total energy in the final basis set =    -1205.5775686249
    9   -1205.5775706480      9.42e-09  Convergence criterion met
 Total energy in the final basis set =    -1205.5775706480

             Standard Nuclear Orientation (Angstroms)
    I     Atom           X                Y                Z
 ----------------------------------------------------------------
    1      C      -0.5170087804    -0.4722515175    -0.0801551840
    2      C      -1.7403497224    -1.1095481576    -0.2209838828
    3      C      -3.0016816076    -0.4286039873    -0.1440970317
    4      C      -4.2775318471    -0.9634533864    -0.2980914471
    5      C      -5.4273336919    -0.0789053112    -0.1498257721
    6      C      -6.7483636803    -0.4526096356    -0.2425147844
    7      H      -1.7470331913    -2.1887692883    -0.3991525941
    8      H      -2.9439730114     0.6486064497     0.0645806359
    9      H      -5.1877567440     0.9612961678     0.0949847123
   10      C      -7.9519905699     0.3839182203    -0.0628601205
   11      H      -6.9525252794    -1.5174374990    -0.4015641838
   12      C      -8.0687327972     1.6771049904    -0.5259978643
   13      C      -9.3244071805     2.5271176940    -0.3026538814
   14      C     -10.5846429227     1.7098233742     0.0641737218
   15      H      -9.5137173619     3.1343508386    -1.2086284765
   16      H      -9.1147364251     3.2639986356     0.5037356708
   17      C     -10.2254403168     0.6602428730     1.1365908017
   18      H     -10.9759284995     1.2080264490    -0.8400233892
   19      H     -11.3847730218     2.3807297245     0.4261023952
   20      C      -9.1392969379    -0.3559931453     0.6495235051
   21      H     -11.1214162156     0.0957868511     1.4554948864
   22      H      -9.8441750409     1.1850116811     2.0347032566
   23      C      -6.9838673722     2.4018560134    -1.3167495094
   24      H      -6.2703209693     1.7089630264    -1.7864267270
   25      H      -6.3996122918     3.0960801370    -0.6796570812
   26      H      -7.4430331872     3.0206847129    -2.1092799867
   27      C      -9.7876048195    -1.3841546902    -0.3410789470
   28      H     -10.2052820023    -0.8803138714    -1.2280439051
   29      H     -10.6023383124    -1.9349527840     0.1628401500
   30      H      -9.0540758519    -2.1280240180    -0.6964269688
   31      C      -8.6303398326    -1.1285023806     1.9126490961
   32      H      -8.1245747635    -0.4417544767     2.6128940889
   33      H      -7.9180634892    -1.9294370511     1.6554343925
   34      H      -9.4844307811    -1.5907697780     2.4400568036
   35      C       0.7871085056    -1.0919661622    -0.1386216142
   36      C       1.9213221357    -0.2848658663    -0.0089266357
   37      C       3.2937565752    -0.6811540163    -0.0523637968
   38      C       4.3639511084     0.2001502232     0.0638649072
   39      H       3.5299361586    -1.7422669339    -0.1923127832
   40      H       1.7412076538     0.7888305930     0.1380153226
   41      H      -0.5263835732     0.6130389732     0.0886270334
   42      C       5.7330767973    -0.2093492898     0.0181552405
   43      C       6.8796477897     0.5844472609     0.1024325255
   44      C       8.1715685658    -0.0634576962     0.0507869604
   45      C       9.4119213324     0.5488544812     0.1130194149
   46      H       9.4571999473     1.6377169742     0.2077531480
   47      H       8.1530885644    -1.1575359125    -0.0461540446
   48      C      10.6501909775    -0.1820123257     0.0620356966
   49      C      11.9448984900     0.3139154331     0.1150546383
   50      H      10.5474073321    -1.2721612203    -0.0303093038
   51      C      13.0588362460    -0.6361194761     0.0497153824
   52      C      14.3865542498    -0.3362731251     0.0833396379
   53      H      14.7582198178     0.6882865889     0.1636372704
   54      H      12.7668882916    -1.6914650993    -0.0335548751
   55      H      15.1451134868    -1.1203625032     0.0294826058
   56      H       4.1340723319     1.2633227140     0.1981278341
   57      H       5.8982793061    -1.2892809769    -0.0982853590
   58      C      -4.5218192770    -2.4352411330    -0.6105954150
   59      H      -3.5875189413    -2.9999950018    -0.7310880525
   60      H      -5.1045411981    -2.5495731355    -1.5427069423
   61      H      -5.1048674475    -2.9218290963     0.1934008791
   62      C       0.8727422712    -2.6012361052    -0.3458040600
   63      H       1.9081864856    -2.9672326972    -0.3459405893
   64      H       0.4135095324    -2.8973531407    -1.3066961004
   65      H       0.3286941042    -3.1402086297     0.4510279041
   66      C       6.8228782467     2.1018406997     0.2446063076
   67      H       5.7927818180     2.4825851059     0.2660540398
   68      H       7.3433149739     2.5965842905    -0.5959120804
   69      H       7.3229886509     2.4339018830     1.1726569175
   70      C      12.2713002920     1.7954535780     0.2367719472
   71      H      11.3714950740     2.4248954286     0.2756239911
   72      H      12.8824383005     2.1360539467    -0.6194315207
   73      H      12.8622538947     1.9963810846     1.1495032639
 ----------------------------------------------------------------

    9   -1205.5775708671      4.81e-09  Convergence criterion met
 Total energy in the final basis set =    -1205.5775708671
 Final energy is   -1205.57757086714
 **  OPTIMIZATION CONVERGED  **

                    Orbital Energies (a.u.)
 --------------------------------------------------------------

 Alpha MOs
 -- Occupied --
 -9.933  -9.933  -9.932  -9.931  -9.929  -9.923  -9.922  -9.921
 -9.920  -9.920  -9.919  -9.919  -9.919  -9.918  -9.918  -9.918
 -9.918  -9.918  -9.916  -9.915  -9.915  -9.915  -9.915  -9.914
 -9.913  -9.911  -9.908  -9.908  -9.906  -9.904  -9.901  -0.755
 -0.746  -0.741  -0.732  -0.727  -0.703  -0.696  -0.689  -0.676
 -0.663  -0.642  -0.639  -0.627  -0.612  -0.611  -0.604  -0.603
 -0.594  -0.591  -0.565  -0.543  -0.525  -0.508  -0.496  -0.483
 -0.481  -0.471  -0.467  -0.459  -0.449  -0.436  -0.429  -0.418
 -0.413  -0.407  -0.403  -0.392  -0.387  -0.383  -0.378  -0.369
 -0.365  -0.364  -0.363  -0.363  -0.361  -0.360  -0.359  -0.348
 -0.347  -0.342  -0.340  -0.336  -0.334  -0.332  -0.329  -0.326
 -0.320  -0.317  -0.313  -0.310  -0.308  -0.303  -0.299  -0.297
 -0.294  -0.291  -0.288  -0.288  -0.286  -0.284  -0.279  -0.273
 -0.269  -0.259  -0.252  -0.246  -0.240  -0.225  -0.203  -0.184
 -0.162  -0.136

          Ground-State Mulliken Net Atomic Charges

     Atom                 Charge (a.u.)
  ----------------------------------------
      1 C                    -0.147457
      2 C                    -0.079640
      3 C                    -0.157085
      4 C                     0.149737
      5 C                    -0.120302
      6 C                    -0.161310
      7 H                     0.094980
      8 H                     0.085909
      9 H                     0.096850
     10 C                     0.096903
     11 H                     0.096587
     12 C                     0.090913
     13 C                    -0.274045
     14 C                    -0.217256
     15 H                     0.109959
     16 H                     0.122079
     17 C                    -0.207204
     18 H                     0.114719
     19 H                     0.101040
     20 C                     0.010336
     21 H                     0.097556
     22 H                     0.105577
     23 C                    -0.440560
     24 H                     0.142235
     25 H                     0.129967
     26 H                     0.116853
     27 C                    -0.369190
     28 H                     0.122212
     29 H                     0.113536
     30 H                     0.117209
     31 C                    -0.360829
     32 H                     0.119266
     33 H                     0.112197
     34 H                     0.109595
     35 C                     0.155015
     36 C                    -0.160796
     37 C                    -0.085604
     38 C                    -0.083276
     39 H                     0.094666
     40 H                     0.087751
     41 H                     0.087771
     42 C                    -0.162457
     43 C                     0.156298
     44 C                    -0.147631
     45 C                    -0.077657
     46 H                     0.095386
     47 H                     0.088738
     48 C                    -0.156345
     49 C                     0.154161
     50 H                     0.087776
     51 C                    -0.078692
     52 C                    -0.283226
     53 H                     0.104810
     54 H                     0.091048
     55 H                     0.104597
     56 H                     0.094553
     57 H                     0.088170
     58 C                    -0.452475
     59 H                     0.128323
     60 H                     0.139718
     61 H                     0.138972
     62 C                    -0.451892
     63 H                     0.129865
     64 H                     0.140131
     65 H                     0.140113
     66 C                    -0.451662
     67 H                     0.129684
     68 H                     0.140176
     69 H                     0.139905
     70 C                    -0.454282
     71 H                     0.127751
     72 H                     0.139675
     73 H                     0.139602
  ----------------------------------------
  Sum of atomic charges =    -0.000000

                    Cartesian Multipole Moments
 -----------------------------------------------------------------
    Charge (ESU x 10^10)
                -0.0000
    Dipole Moment (Debye)
         X      -1.7872      Y       0.3284      Z      -0.0600
       Tot       1.8181
    Quadrupole Moments (Debye-Ang)
        XX    -186.4910     XY       4.3540     YY    -178.2290
        XZ       0.4055     YZ       2.2872     ZZ    -200.3399

 Total job time:  850.02s(wall), 3340.14s(cpu)
        *  Thank you very much for using Q-Chem.  Have a nice day.  *
