 Q-Chem 5.1, Q-Chem, Inc., Pleasanton, CA (2018)
 Q-Chem 5.1.1 for Intel X86 EM64T Linux

User input:
--------------------------------------------------------------
$molecule
2 5
Fe        -0.28190       -1.48682        0.36044
O         -0.76259       -3.17269        1.11627
O         -0.26527       -4.06723        0.28017
H          3.87904       -6.67333        3.23846
H          4.03445       -8.13817        2.20877
C          3.37846       -7.27319        2.45130
H          2.43621       -7.67063        2.88494
H          5.26232       -5.16266        2.35549
H          5.12545       -6.83910        0.43190
C          5.07848       -4.85198        1.30684
C          3.09062       -6.43120        1.18629
C          4.42784       -5.97744        0.52717
H          6.05745       -4.57477        0.85935
H         -1.27160       -6.88192        3.13947
H          3.04753       -8.19482       -0.12118
C          2.38707       -7.34365        0.15938
C          2.20682       -5.22422        1.60489
H          4.59672       -2.87420        1.93768
H          1.45539       -7.77867        0.57699
C          4.15731       -3.63999        1.26234
C          0.76076       -5.49460        2.03132
C         -1.81940       -7.02843        2.18552
C          2.72913       -3.95282        1.66251
H         -1.35396       -7.86667        1.62836
H          2.52991       -2.28170        2.99548
H         -2.83983       -7.34199        2.45821
H          4.24075       -5.59130       -0.50109
C          1.96512       -2.74845        2.16251
H          0.98236       -2.97599        2.59634
C         -0.31685       -5.33025        0.91463
H          2.14158       -6.78061       -0.76619
H          4.12526       -3.20323        0.24005
C         -1.73242       -5.76674        1.35090
H          1.85416       -2.00746        1.34483
H         -4.52798       -6.23420        1.91275
C         -2.84001       -5.06759        0.96133
C         -4.25391       -5.38975        1.29760
H         -2.71988       -4.19597        0.32869
C         -5.25442       -4.62831        0.84004
H         -6.28218       -4.87319        1.09022
H         -5.06720       -3.75923        0.21586
H          0.50625       -5.05666        3.01764
H         -0.03465       -6.06647        0.13910
$end

$rem
BASIS = STO-3G
METHOD  = BLYP
JOBTYPE = OPT
MAX_SCF_CYCLES = 500
SCF_ALGORITHM = DIIS_GDM
$end
--------------------------------------------------------------

   59   -2013.8226361804      8.76e-09  Convergence criterion met
 Total energy in the final basis set =    -2013.8226361804
   41   -2013.8685015481      4.94e-09  Convergence criterion met
 Total energy in the final basis set =    -2013.8685015481
   43   -2013.8940723928      4.06e-09  Convergence criterion met
 Total energy in the final basis set =    -2013.8940723928
   45   -2013.9083612397      2.31e-09  Convergence criterion met
 Total energy in the final basis set =    -2013.9083612397
   54   -2013.9235968568      7.28e-09  Convergence criterion met
 Total energy in the final basis set =    -2013.9235968568
   55   -2013.9367641653      5.96e-09  Convergence criterion met
 Total energy in the final basis set =    -2013.9367641653
   52   -2013.9464426309      9.64e-09  Convergence criterion met
 Total energy in the final basis set =    -2013.9464426309
   52   -2013.9536372974      3.35e-09  Convergence criterion met
   32   -2013.9904578250      8.69e-09  Convergence criterion met
 Total energy in the final basis set =    -2013.9904578250
   35   -2013.9905154641      5.51e-09  Convergence criterion met
 Total energy in the final basis set =    -2013.9905154641
   31   -2013.9905381653      7.63e-09  Convergence criterion met
 Total energy in the final basis set =    -2013.9905381653
   36   -2013.9905499345      4.43e-09  Convergence criterion met
 Total energy in the final basis set =    -2013.9905499345
   33   -2013.9905530852      4.59e-09  Convergence criterion met
 Total energy in the final basis set =    -2013.9905530852
   26   -2013.9905547654      4.48e-09  Convergence criterion met
 Total energy in the final basis set =    -2013.9905547654

             Standard Nuclear Orientation (Angstroms)
    I     Atom           X                Y                Z
 ----------------------------------------------------------------
    1      Fe     -1.4386369654    -2.9642967948     2.2339640118
    2      O      -1.7430246904    -1.6405629694     1.4554807070
    3      O      -1.4403485336    -0.2407417095     1.7978595851
    4      H       2.3738068733     2.7740591514    -0.1933168730
    5      H       2.5992173656     2.9974683421     1.5767161020
    6      C       2.0338703717     2.4360014941     0.8061118316
    7      H       0.9626612285     2.6961086049     0.9144606550
    8      H       4.3217212038     1.7854841749    -0.8096078071
    9      H       4.3279001603     1.3485948595     1.7321001658
   10      C       4.5152857056     0.7763858705    -0.3878373194
   11      C       2.2999534197     0.8819745588     1.0161604135
   12      C       3.8696433088     0.6241611058     1.0263518341
   13      H       5.6161398188     0.6391515106    -0.3262099453
   14      H      -2.6440227994    -1.2107142377    -0.7494444463
   15      H       2.3122242978     0.9497630180     3.2217086067
   16      C       1.7544115936     0.4089097152     2.4313272052
   17      C       1.6033270813     0.0515014518    -0.1516356895
   18      H       4.1836735927    -0.1534017749    -2.4137194749
   19      H       0.6773564397     0.6190130708     2.5694244391
   20      C       3.9270492847    -0.3182172785    -1.3360527722
   21      C       0.2010399010    -0.1307776281    -0.2783458097
   22      C      -2.7896916337    -0.2154166598    -1.2207376750
   23      C       2.4145945107    -0.5475705336    -1.2372885115
   24      H      -2.3201689407    -0.2343777723    -2.2306457069
   25      H       1.4699047268    -0.7352745172    -3.1876091616
   26      H      -3.8767398907    -0.0519507153    -1.3578587622
   27      H       4.0728860512    -0.3973441650     1.4151024168
   28      C       1.8351715096    -1.4145281276    -2.3765925064
   29      H       0.9949341398    -2.0644512010    -2.0588504134
   30      C      -0.9239178171     0.5710677376     0.4963366261
   31      H       1.9294121259    -0.6774797199     2.5693405838
   32      H       4.3808786953    -1.3211903263    -1.0900968245
   33      C      -2.1748618080     0.8938988747    -0.3394347618
   34      H       2.6410786321    -2.0405831760    -2.8135576139
   35      H      -4.4635348442     2.0132236922    -1.5751822026
   36      C      -2.7235628716     2.1832213413    -0.1979107863
   37      C      -3.9183494849     2.6851760449    -0.8824461125
   38      H      -2.2118719913     2.9015328898     0.4795411432
   39      C      -4.3814096504     3.9797420588    -0.6827854268
   40      H      -5.2907439284     4.3511217491    -1.2020224343
   41      H      -3.8643667021     4.6874479521     0.0002398201
   42      H      -0.1669674334    -0.7754487795    -1.1040976656
   43      H      -0.5550133840     1.4775208230     1.0371477370
 ----------------------------------------------------------------

   29   -2013.9905552767      1.85e-09  Convergence criterion met
 Total energy in the final basis set =    -2013.9905552767
 Final energy is   -2013.99055527670
 **  OPTIMIZATION CONVERGED  **

                    Orbital Energies (a.u.)
 --------------------------------------------------------------

 Alpha MOs
 -- Occupied --
******* -29.654 -26.209 -26.207 -26.203 -18.970 -18.952 -10.119
-10.119 -10.091 -10.075 -10.052 -10.043 -10.041 -10.036 -10.031
-10.022 -10.017 -10.017  -9.988  -9.980  -9.979  -9.977  -3.842
 -2.684  -2.680  -2.672  -1.265  -1.078  -1.007  -0.968  -0.936
 -0.919  -0.901  -0.872  -0.853  -0.834  -0.816  -0.804  -0.788
 -0.743  -0.736  -0.725  -0.703  -0.691  -0.677  -0.651  -0.642
 -0.635  -0.626  -0.616  -0.607  -0.603  -0.592  -0.583  -0.579
 -0.578  -0.571  -0.566  -0.564  -0.559  -0.555  -0.549  -0.541
 -0.537  -0.531  -0.516  -0.513  -0.510  -0.510  -0.506  -0.500
 -0.499  -0.488  -0.481  -0.478  -0.470  -0.463  -0.455  -0.450
 -0.418  -0.397

 Beta MOs
 -- Occupied --
******* -29.617 -26.177 -26.176 -26.176 -18.970 -18.954 -10.119
-10.118 -10.091 -10.075 -10.054 -10.043 -10.041 -10.036 -10.031
-10.022 -10.019 -10.017  -9.988  -9.980  -9.979  -9.977  -3.646
 -2.500  -2.477  -2.473  -1.266  -1.078  -1.006  -0.970  -0.937
 -0.919  -0.903  -0.872  -0.853  -0.836  -0.816  -0.804  -0.788
 -0.741  -0.737  -0.724  -0.701  -0.688  -0.677  -0.650  -0.640
 -0.635  -0.622  -0.616  -0.606  -0.594  -0.592  -0.579  -0.578
 -0.577  -0.570  -0.566  -0.564  -0.558  -0.551  -0.542  -0.541
 -0.532  -0.523  -0.515  -0.512  -0.505  -0.500  -0.483  -0.478
 -0.470  -0.462  -0.455  -0.442  -0.428  -0.402

          Ground-State Mulliken Net Atomic Charges

     Atom                 Charge (a.u.)    Spin (a.u.)
  --------------------------------------------------------
      1 Fe                    0.639385       4.378768
      2 O                    -0.190263      -0.121018
      3 O                     0.048348      -0.014815
      4 H                     0.089408      -0.000014
      5 H                     0.108223      -0.000037
      6 C                    -0.212892       0.000350
      7 H                     0.068659      -0.000000
      8 H                     0.096838      -0.000008
      9 H                     0.105647       0.000047
     10 C                    -0.128981       0.000189
     11 C                     0.029305       0.000178
     12 C                    -0.130498      -0.000106
     13 H                     0.115401      -0.000050
     14 H                     0.091809      -0.002465
     15 H                     0.109062      -0.000098
     16 C                    -0.216003      -0.000464
     17 C                     0.021645      -0.002364
     18 H                     0.136180       0.000662
     19 H                     0.066920       0.000039
     20 C                    -0.133027      -0.001879
     21 C                    -0.010745       0.016391
     22 C                    -0.223750       0.002725
     23 C                     0.141617       0.034377
     24 H                     0.111848      -0.007419
     25 H                     0.140381       0.001632
     26 H                     0.119360      -0.000580
     27 H                     0.084965      -0.000026
     28 C                    -0.224211      -0.002062
     29 H                     0.113200       0.000482
     30 C                     0.000847       0.018467
     31 H                     0.080646       0.000015
     32 H                     0.142699       0.002212
     33 C                     0.032488      -0.103635
     34 H                     0.136859       0.000324
     35 H                     0.121964       0.000694
     36 C                    -0.027363      -0.043924
     37 C                    -0.043733      -0.015003
     38 H                     0.113583       0.001863
     39 C                    -0.057106      -0.157447
     40 H                     0.145365       0.006628
     41 H                     0.129896       0.006552
     42 H                     0.120706      -0.000558
     43 H                     0.135319       0.001376
  --------------------------------------------------------
  Sum of atomic charges =     2.000000

                    Cartesian Multipole Moments
 -----------------------------------------------------------------
    Charge (ESU x 10^10)
                 9.6064
    Dipole Moment (Debye)
         X      -2.7081      Y      -0.5562      Z       0.1887
       Tot       2.7710
    Quadrupole Moments (Debye-Ang)
        XX     -35.6414     XY     -16.4845     YY     -64.2737
        XZ      -8.4620     YZ     -10.7915     ZZ     -88.0622

 Total job time:  1255.69s(wall), 14995.73s(cpu)
        *  Thank you very much for using Q-Chem.  Have a nice day.  *
