 Q-Chem 5.1, Q-Chem, Inc., Pleasanton, CA (2018)
 Q-Chem 5.1.1 for Intel X86 EM64T Linux

User input:
--------------------------------------------------------------
$molecule
0 1
O
C  1 1.480587
H  2 1.101389 1 107.824262
C  2 1.526638 1 115.940402 3 123.946151 0
C  4 1.364953 2 117.992507 1 -157.276192 0
C  5 1.525210 4 123.180227 2 177.779237 0
H  6 1.106463 5 108.599034 4 -139.104550 0
H  6 1.109355 5 108.582521 4 107.291623 0
C  5 1.525847 4 124.545539 2 -2.816857 0
H  9 1.096190 5 114.595028 4 -18.208567 0
H  9 1.103748 5 109.543061 4 -138.222610 0
H  9 1.106225 5 110.957400 4 104.872490 0
O  1 1.535112 2 90.213929 3 103.704194 0
C  13 1.486571 1 90.352997 2 8.544094 0
H  14 1.102336 13 110.044752 1 105.131294 0
C  14 1.503799 13 112.806590 1 -130.497627 0
C  16 1.371312 14 118.325590 13 -132.228727 0
H  17 1.097973 16 117.124000 14 2.750881 0
C  17 1.445530 16 127.477982 14 -176.408465 0
H  19 1.093229 17 117.854276 16 -0.677980 0
C  19 1.372813 17 123.070893 16 178.554158 0
H  21 1.097504 19 117.561537 17 0.040850 0
C  21 1.453992 19 126.698195 17 -179.633535 0
C  23 1.379765 21 118.274201 19 178.410551 0
H  24 1.097517 23 116.826013 21 -0.221598 0
C  24 1.448910 23 128.158463 21 -179.937406 0
H  26 1.094860 24 118.093585 23 -0.708178 0
C  26 1.357789 24 123.840155 23 179.276311 0
H  28 1.091585 26 121.638237 24 -179.961506 0
H  28 1.093941 26 121.629244 24 -0.094075 0
C  16 1.517439 14 117.056265 13 48.772293 0
H  31 1.098572 16 112.252421 14 -159.025291 0
H  31 1.100386 16 109.716237 14 -38.416862 0
H  31 1.105916 16 111.920940 14 80.161996 0
C  23 1.520546 21 118.401182 19 -1.358401 0
H  35 1.096884 23 112.708796 21 -179.207713 0
H  35 1.103162 23 110.854144 21 -58.397880 0
H  35 1.103421 23 110.847164 21 60.099209 0
C  6 1.538096 5 113.614210 4 -15.306147 0
H  39 1.103203 6 110.439077 5 167.445241 0
H  39 1.103449 6 109.670992 5 -75.285755 0
C  39 1.537174 6 108.979638 5 45.344244 0
H  42 1.103594 39 111.008973 6 175.810603 0
H  42 1.105961 39 108.487756 6 59.224409 0
C  4 1.556078 2 119.292478 1 22.284430 0
C  45 1.560860 4 112.133896 2 48.899769 0
H  46 1.096751 45 112.170502 4 -63.574628 0
H  46 1.103126 45 111.228549 4 58.677533 0
H  46 1.103340 45 109.201489 4 176.697368 0
C  45 1.563056 4 109.789212 2 -71.563075 0
H  50 1.098777 45 111.157164 4 60.269280 0
H  50 1.101626 45 111.867882 4 -60.558084 0
H  50 1.103680 45 109.908353 4 179.570189 0
$end

$rem
BASIS = VDZ
METHOD  = B97M-rV
JOBTYPE = OPT
$end
--------------------------------------------------------------

   16    -967.4981175533      6.85e-09  Convergence criterion met
 Total energy in the final basis set =     -967.4981175533
   13    -967.5010748613      3.87e-09  Convergence criterion met
 Total energy in the final basis set =     -967.5010748613
   13    -967.5010484096      3.78e-09  Convergence criterion met
 Total energy in the final basis set =     -967.5010484096
   12    -967.5016592101      6.53e-09  Convergence criterion met
 Total energy in the final basis set =     -967.5016592101
   13    -967.5009911343      4.40e-09  Convergence criterion met
 Total energy in the final basis set =     -967.5009911343
   13    -967.5020050224      2.85e-09  Convergence criterion met
 Total energy in the final basis set =     -967.5020050224
   11    -967.5020118983      5.65e-09  Convergence criterion met
 Total energy in the final basis set =     -967.5020118983
   11    -967.5020273902      3.50e-09  Convergence criterion met
   10    -967.5020315534      9.65e-09  Convergence criterion met
 Total energy in the final basis set =     -967.5020315534
   10    -967.5020382734      5.60e-09  Convergence criterion met
 Total energy in the final basis set =     -967.5020382734
   10    -967.5020432605      3.77e-09  Convergence criterion met
 Total energy in the final basis set =     -967.5020432605
   11    -967.5020544555      4.78e-09  Convergence criterion met
 Total energy in the final basis set =     -967.5020544555
   10    -967.5020599465      4.78e-09  Convergence criterion met
 Total energy in the final basis set =     -967.5020599465
    9    -967.5020619423      9.71e-09  Convergence criterion met
 Total energy in the final basis set =     -967.5020619423

             Standard Nuclear Orientation (Angstroms)
    I     Atom           X                Y                Z
 ----------------------------------------------------------------
    1      O      -2.9868838311    -2.2717489023     0.1402545379
    2      C      -2.1983763546    -1.1214431813    -0.4110050151
    3      H      -1.9699731083    -1.3625612960    -1.4585114691
    4      C      -2.8395220795     0.2315264418    -0.2924605758
    5      C      -2.4221519261     1.2237830442    -1.1256446228
    6      C      -3.0214529910     2.6105035452    -1.1132598726
    7      H      -3.1278793496     2.9559685516    -2.1591094878
    8      H      -2.2956316607     3.3139648852    -0.6523309197
    9      C      -1.3124324003     1.0774863353    -2.1368410679
   10      H      -0.7436387195     0.1404388287    -2.0669052992
   11      H      -0.5842845959     1.9004131430    -2.0132645086
   12      H      -1.7021976398     1.1676208623    -3.1684244789
   13      O      -1.6876528171    -2.7814065232     0.8547571889
   14      C      -1.0145491318    -1.4764949870     0.5140932741
   15      H      -0.9762701622    -0.8377324475     1.4081404520
   16      C       0.3329856234    -1.6571664549    -0.0812018048
   17      C       1.3646898480    -0.8995786136     0.3989317979
   18      H       1.1520417242    -0.2462971847     1.2548560570
   19      C       2.7086292133    -0.8468080209    -0.1081316404
   20      H       2.9595048135    -1.4842902983    -0.9608798354
   21      C       3.6680964027    -0.0249434301     0.4194015186
   22      H       3.3863314249     0.6120386381     1.2670760185
   23      C       5.0361295227     0.0936184191    -0.0329479636
   24      C       5.8622198768     0.9902656769     0.6044805856
   25      H       5.4243781348     1.5692347323     1.4274763652
   26      C       7.2487719735     1.2666449884     0.3233820513
   27      H       7.7301337664     0.7068070526    -0.4847628269
   28      C       7.9862861158     2.1781374543     1.0035662022
   29      H       9.0366934774     2.3588160560     0.7683096135
   30      H       7.5541218536     2.7652455998     1.8210537784
   31      C       0.4456056484    -2.6285299569    -1.2207828633
   32      H       1.4687878740    -3.0118339852    -1.3417337642
   33      H      -0.2256312717    -3.4848711352    -1.0485659871
   34      H       0.1513064717    -2.1765721056    -2.1888155221
   35      C       5.4816550368    -0.7709992387    -1.1810757395
   36      H       6.5393236543    -0.6287533953    -1.4344683235
   37      H       5.3375597523    -1.8407750929    -0.9516597936
   38      H       4.8916529293    -0.5608900374    -2.0907721603
   39      C      -4.3546874794     2.6827480083    -0.3764619111
   40      H      -4.6496973541     3.7331322842    -0.2171526197
   41      H      -5.1500952553     2.2238159263    -0.9916637262
   42      C      -4.2244003554     1.9449824869     0.9507429385
   43      H      -5.1404498690     2.0471094047     1.5593966893
   44      H      -3.4021026101     2.4053244244     1.5341593073
   45      C      -3.9232345584     0.4383523260     0.7753685873
   46      C      -3.4805000704    -0.0929143798     2.1567600892
   47      H      -3.3150727748    -1.1785836129     2.1552541349
   48      H      -2.5584560758     0.4129643338     2.4946964764
   49      H      -4.2703176008     0.1311191330     2.8960826880
   50      C      -5.2119990432    -0.2996053675     0.3453323049
   51      H      -5.0318438668    -1.3808864707     0.2489272414
   52      H      -5.5840514901     0.0737401075    -0.6235584698
   53      H      -6.0032545732    -0.1502110784     1.1025124896
 ----------------------------------------------------------------

    9    -967.5020622865      5.30e-09  Convergence criterion met
 Total energy in the final basis set =     -967.5020622865
 Final energy is   -967.502062286455
 **  OPTIMIZATION CONVERGED  **

                    Orbital Energies (a.u.)
 --------------------------------------------------------------

 Alpha MOs
 -- Occupied --
-19.201 -19.200 -10.255 -10.253 -10.217 -10.213 -10.209 -10.206
-10.205 -10.205 -10.205 -10.203 -10.203 -10.199 -10.194 -10.191
-10.190 -10.188 -10.188 -10.183 -10.179 -10.164 -10.163  -1.072
 -0.875  -0.834  -0.825  -0.806  -0.772  -0.768  -0.752  -0.732
 -0.703  -0.677  -0.672  -0.662  -0.651  -0.648  -0.614  -0.583
 -0.559  -0.544  -0.532  -0.521  -0.514  -0.496  -0.477  -0.465
 -0.462  -0.454  -0.443  -0.433  -0.424  -0.420  -0.409  -0.405
 -0.403  -0.400  -0.394  -0.391  -0.387  -0.383  -0.375  -0.372
 -0.361  -0.357  -0.355  -0.352  -0.344  -0.338  -0.334  -0.328
 -0.326  -0.324  -0.322  -0.319  -0.315  -0.307  -0.301  -0.293
 -0.289  -0.272  -0.247  -0.221  -0.208  -0.190

          Ground-State Mulliken Net Atomic Charges

     Atom                 Charge (a.u.)
  ----------------------------------------
      1 O                    -0.311672
      2 C                     0.111310
      3 H                     0.112381
      4 C                     0.059401
      5 C                    -0.139720
      6 C                    -0.170636
      7 H                     0.102995
      8 H                     0.106850
      9 C                    -0.269568
     10 H                     0.130616
     11 H                     0.121252
     12 H                     0.122563
     13 O                    -0.293707
     14 C                     0.068680
     15 H                     0.100781
     16 C                    -0.035615
     17 C                    -0.088183
     18 H                     0.071782
     19 C                    -0.066374
     20 H                     0.084875
     21 C                    -0.110732
     22 H                     0.072360
     23 C                    -0.047114
     24 C                    -0.126927
     25 H                     0.071885
     26 C                    -0.069000
     27 H                     0.087607
     28 C                    -0.208433
     29 H                     0.110276
     30 H                     0.107019
     31 C                    -0.269635
     32 H                     0.127076
     33 H                     0.149364
     34 H                     0.131689
     35 C                    -0.251320
     36 H                     0.122432
     37 H                     0.130156
     38 H                     0.128426
     39 C                    -0.142665
     40 H                     0.095743
     41 H                     0.102640
     42 C                    -0.120161
     43 H                     0.091693
     44 H                     0.087204
     45 C                    -0.352637
     46 C                    -0.222290
     47 H                     0.160442
     48 H                     0.101427
     49 H                     0.100217
     50 C                    -0.228624
     51 H                     0.148900
     52 H                     0.104782
     53 H                     0.100190
  ----------------------------------------
  Sum of atomic charges =    -0.000000

                    Cartesian Multipole Moments
 -----------------------------------------------------------------
    Charge (ESU x 10^10)
                -0.0000
    Dipole Moment (Debye)
         X       2.9414      Y       3.2116      Z      -1.9450
       Tot       4.7696
    Quadrupole Moments (Debye-Ang)
        XX    -138.8979     XY     -10.2915     YY    -152.1865
        XZ      -0.5592     YZ       7.0043     ZZ    -141.0224

 Total job time:  22680.90s(wall), 252866.53s(cpu)
        *  Thank you very much for using Q-Chem.  Have a nice day.  *
