 Q-Chem 5.1, Q-Chem, Inc., Pleasanton, CA (2018)
 Q-Chem 5.1.1 for Intel X86 EM64T Linux

User input:
--------------------------------------------------------------
$molecule
2 5
Fe
O  1 1.946473
O  2 1.265326 1 135.774603
N  1 1.954755 2 89.621093 3 69.419690 0
C  4 1.355294 1 127.110165 2 44.852211 0
H  5 1.088208 4 126.868611 1 3.277860 0
N  5 1.353174 4 108.984972 1 -177.202829 0
H  7 1.020497 5 125.278628 4 -179.460694 0
C  7 1.392800 5 109.448999 4 0.439678 0
H  9 1.087376 7 122.757242 5 179.171579 0
C  9 1.376015 7 106.010639 5 -0.419317 0
H  11 1.086538 9 128.624961 7 179.337233 0
N  1 1.957576 2 90.477459 3 -93.582765 0
C  13 1.355362 1 127.851857 2 -24.603189 0
H  14 1.087916 13 126.670853 1 -3.712528 0
N  14 1.353641 13 109.041512 1 176.856601 0
H  16 1.020964 14 125.272197 13 179.845815 0
C  16 1.392454 14 109.528460 13 -0.326691 0
H  18 1.087696 16 122.845737 14 -179.189627 0
C  18 1.375891 16 105.922162 14 0.368537 0
H  20 1.087446 18 128.223892 16 -178.414113 0
N  1 2.067499 2 149.584145 3 172.290580 0
H  22 1.033388 1 104.303738 2 74.665487 0
C  22 1.461368 1 112.071195 2 -160.459534 0
H  24 1.088514 22 121.706034 1 -70.237056 0
C  24 1.361349 22 107.109467 1 112.027581 0
H  26 1.088453 24 128.974388 22 -179.237112 0
N  26 1.424280 24 110.470962 22 2.079883 0
C  28 1.294329 26 107.793768 24 0.710184 0
H  29 1.091129 28 127.083764 26 176.150356 0
$end

$rem
BASIS = VDZ
METHOD  = B97M-rV
JOBTYPE = OPT
MAX_SCF_CYCLES = 500
SCF_ALGORITHM = DIIS_GDM
$end
--------------------------------------------------------------

   59   -2090.7299847137      8.78e-09  Convergence criterion met
 Total energy in the final basis set =    -2090.7299847137
   47   -2090.7323027651      5.71e-09  Convergence criterion met
 Total energy in the final basis set =    -2090.7323027651
   45   -2090.7329574397      6.84e-09  Convergence criterion met
 Total energy in the final basis set =    -2090.7329574397
   45   -2090.7334380138      6.79e-09  Convergence criterion met
 Total energy in the final basis set =    -2090.7334380138
   41   -2090.7335001019      6.72e-09  Convergence criterion met
 Total energy in the final basis set =    -2090.7335001019
   40   -2090.7335902860      5.62e-09  Convergence criterion met
 Total energy in the final basis set =    -2090.7335902860
   40   -2090.7336309509      6.91e-09  Convergence criterion met
 Total energy in the final basis set =    -2090.7336309509
   36   -2090.7336482398      5.68e-09  Convergence criterion met
 Total energy in the final basis set =    -2090.7336482398
   37   -2090.7336587671      3.39e-09  Convergence criterion met
 Total energy in the final basis set =    -2090.7336587671
   37   -2090.7336606167      3.89e-09  Convergence criterion met
 Total energy in the final basis set =    -2090.7336606167
   36   -2090.7336635375      9.94e-09  Convergence criterion met
 Total energy in the final basis set =    -2090.7336635375
   38   -2090.7336646543      5.98e-09  Convergence criterion met
 Total energy in the final basis set =    -2090.7336646543

             Standard Nuclear Orientation (Angstroms)
    I     Atom           X                Y                Z
 ----------------------------------------------------------------
    1      Fe      0.2928651276    -0.2557624536     0.0887788246
    2      O       0.5355960132    -1.9621827554     0.7480519882
    3      O       0.2682691859    -3.1368495406     0.2986254653
    4      N      -1.5688213092    -0.6680396274    -0.2297629137
    5      C      -2.3986315859    -1.3129991650     0.6240241593
    6      H      -2.1606486412    -1.6605752851     1.6224385952
    7      N      -3.6039564917    -1.4464712899     0.0365284242
    8      H      -4.4196480776    -1.8809796800     0.4597645623
    9      C      -3.5663069749    -0.8936330173    -1.2378234689
   10      H      -4.4199052915    -0.9069311409    -1.9038825772
   11      C      -2.2946819695    -0.4039912878    -1.4009722303
   12      H      -1.8594772255     0.0839801595    -2.2641565873
   13      N       2.1974460923     0.0122805927    -0.1152199781
   14      C       3.1721078562    -0.7946164704     0.3669863807
   15      H       3.0305407612    -1.6828066461     0.9710638374
   16      N       4.3679411152    -0.3112976906    -0.0246526886
   17      H       5.2710967600    -0.7203453271     0.1996807338
   18      C       4.1842681718     0.8355337464    -0.7873875192
   19      H       5.0110049013     1.3874259210    -1.2175992179
   20      C       2.8286072020     1.0367615944    -0.8411938200
   21      H       2.2821065217     1.8110104608    -1.3671363666
   22      N       0.0077445434     1.7439162031     0.5083244804
   23      H       0.9274384725     2.0949763197     0.8093376795
   24      C      -0.5821159563     2.3803329691    -0.6548654426
   25      H       0.0003136213     2.5963575403    -1.5447240074
   26      C      -1.8822988887     2.6384537907    -0.3409064769
   27      H      -2.6554974791     3.0886304672    -0.9534263403
   28      N      -2.1606390322     2.2493012612     0.9916594186
   29      C      -1.0631622508     1.7808538499     1.5007186751
   30      H      -0.9036944255     1.4533068625     2.5243942990
 ----------------------------------------------------------------

   32   -2090.7336650072      8.89e-09  Convergence criterion met
 Total energy in the final basis set =    -2090.7336650072
 Final energy is   -2090.73366500723
 **  OPTIMIZATION CONVERGED  **

                    Orbital Energies (a.u.)
 --------------------------------------------------------------

 Alpha MOs
 -- Occupied --
******* -30.454 -26.194 -26.188 -26.181 -19.575 -19.571 -14.709
-14.690 -14.682 -14.671 -14.664 -14.618 -10.557 -10.550 -10.539
-10.510 -10.507 -10.504 -10.497 -10.495 -10.493  -3.861  -2.603
 -2.598  -2.583  -1.509  -1.307  -1.299  -1.286  -1.164  -1.156
 -1.153  -1.109  -1.025  -1.017  -1.011  -0.895  -0.886  -0.873
 -0.870  -0.864  -0.849  -0.830  -0.823  -0.814  -0.802  -0.773
 -0.769  -0.745  -0.725  -0.716  -0.712  -0.703  -0.700  -0.697
 -0.695  -0.692  -0.688  -0.685  -0.673  -0.664  -0.638  -0.618
 -0.606  -0.602  -0.589  -0.574  -0.572  -0.556  -0.547  -0.539
 -0.517  -0.512  -0.510  -0.496

 Beta MOs
 -- Occupied --
******* -30.402 -26.151 -26.146 -26.133 -19.555 -19.539 -14.709
-14.690 -14.682 -14.672 -14.665 -14.618 -10.556 -10.550 -10.538
-10.510 -10.507 -10.504 -10.497 -10.495 -10.492  -3.737  -2.482
 -2.475  -2.444  -1.467  -1.307  -1.299  -1.287  -1.164  -1.155
 -1.154  -1.052  -1.024  -1.017  -1.011  -0.894  -0.885  -0.873
 -0.870  -0.863  -0.848  -0.829  -0.822  -0.813  -0.766  -0.743
 -0.722  -0.719  -0.713  -0.710  -0.704  -0.700  -0.698  -0.693
 -0.692  -0.689  -0.686  -0.683  -0.664  -0.661  -0.625  -0.594
 -0.582  -0.572  -0.522  -0.516  -0.514  -0.510  -0.508  -0.496

          Ground-State Mulliken Net Atomic Charges

     Atom                 Charge (a.u.)    Spin (a.u.)
  --------------------------------------------------------
      1 Fe                    1.323242       2.472307
      2 O                    -0.258997       0.560458
      3 O                     0.100975       0.958697
      4 N                    -0.701967      -0.019515
      5 C                     0.325447       0.020254
      6 H                     0.193870      -0.001560
      7 N                    -0.416717       0.002140
      8 H                     0.331491      -0.000252
      9 C                     0.128817       0.010484
     10 H                     0.191837      -0.000850
     11 C                     0.090882      -0.008769
     12 H                     0.160207       0.000565
     13 N                    -0.702267      -0.019822
     14 C                     0.342708       0.028670
     15 H                     0.203964      -0.001957
     16 N                    -0.419286       0.005188
     17 H                     0.334178      -0.000296
     18 C                     0.146558       0.007140
     19 H                     0.195165      -0.000840
     20 C                     0.033263      -0.006090
     21 H                     0.159293       0.000415
     22 N                    -0.728137      -0.029226
     23 H                     0.346073       0.001899
     24 C                    -0.000765      -0.010891
     25 H                     0.190182       0.000565
     26 C                     0.092476       0.032136
     27 H                     0.185207      -0.001044
     28 N                    -0.243168      -0.022996
     29 C                     0.192856       0.024181
     30 H                     0.202612      -0.000991
  --------------------------------------------------------
  Sum of atomic charges =     2.000000

                    Cartesian Multipole Moments
 -----------------------------------------------------------------
    Charge (ESU x 10^10)
                 9.6064
    Dipole Moment (Debye)
         X       3.4461      Y      -0.2955      Z      -0.6501
       Tot       3.5193
    Quadrupole Moments (Debye-Ang)
        XX      -1.6571     XY      13.6453     YY     -82.6236
        XZ       4.3899     YZ      -9.9140     ZZ     -91.7169

 Total job time:  24384.80s(wall), 189224.94s(cpu)
        *  Thank you very much for using Q-Chem.  Have a nice day.  *
