 Q-Chem 5.1, Q-Chem, Inc., Pleasanton, CA (2018)
 Q-Chem 5.1.1 for Intel X86 EM64T Linux

User input:
--------------------------------------------------------------
$molecule
1 5
Fe        -1.43864       -2.96430        2.23396
O         -1.74302       -1.64056        1.45548
O         -1.44035       -0.24074        1.79786
H          2.37381        2.77406       -0.19332
H          2.59922        2.99747        1.57672
C          2.03387        2.43600        0.80611
H          0.96266        2.69611        0.91446
H          4.32172        1.78548       -0.80961
H          4.32790        1.34859        1.73210
C          4.51529        0.77639       -0.38784
C          2.29995        0.88197        1.01616
C          3.86964        0.62416        1.02635
H          5.61614        0.63915       -0.32621
H         -2.64402       -1.21071       -0.74944
H          2.31222        0.94976        3.22171
C          1.75441        0.40891        2.43133
C          1.60333        0.05150       -0.15164
H          4.18367       -0.15340       -2.41372
H          0.67736        0.61901        2.56942
C          3.92705       -0.31822       -1.33605
C          0.20104       -0.13078       -0.27835
C         -2.78969       -0.21542       -1.22074
C          2.41459       -0.54757       -1.23729
H         -2.32017       -0.23438       -2.23065
H          1.46990       -0.73527       -3.18761
H         -3.87674       -0.05195       -1.35786
H          4.07289       -0.39734        1.41510
C          1.83517       -1.41453       -2.37659
H          0.99493       -2.06445       -2.05885
C         -0.92392        0.57107        0.49634
H          1.92941       -0.67748        2.56934
H          4.38088       -1.32119       -1.09010
C         -2.17486        0.89390       -0.33943
H          2.64108       -2.04058       -2.81356
H         -4.46353        2.01322       -1.57518
C         -2.72356        2.18322       -0.19791
C         -3.91835        2.68518       -0.88245
H         -2.21187        2.90153        0.47954
C         -4.38141        3.97974       -0.68279
H         -5.29074        4.35112       -1.20202
H         -3.86437        4.68745        0.00024
H         -0.55501        1.47752        1.03715
O         -0.00642        0.08197       -1.30626
H          0.12553       -1.09752        0.17398
H          0.13325        1.02683       -1.47545
$end

$rem
BASIS = STO-3G
METHOD  = BLYP
JOBTYPE = OPT
MAX_SCF_CYCLES = 500
SCF_ALGORITHM = DIIS_GDM
$end
--------------------------------------------------------------

   61   -2088.7376422743      3.05e-09  Convergence criterion met
 Total energy in the final basis set =    -2088.7376422743
   40   -2088.9155821757      3.08e-09  Convergence criterion met
 Total energy in the final basis set =    -2088.9155821757
   41   -2088.9874339132      2.35e-09  Convergence criterion met
 Total energy in the final basis set =    -2088.9874339132
   40   -2089.0272490793      7.03e-09  Convergence criterion met
 Total energy in the final basis set =    -2089.0272490793
   41   -2089.0406633100      6.09e-09  Convergence criterion met
 Total energy in the final basis set =    -2089.0406633100
   43   -2089.0448148045      2.62e-09  Convergence criterion met
 Total energy in the final basis set =    -2089.0448148045
   41   -2089.0477903345      6.64e-09  Convergence criterion met
 Total energy in the final basis set =    -2089.0477903345
   35   -2089.0497808560      2.73e-09  Convergence criterion met
   37   -2089.0543869715      2.10e-09  Convergence criterion met
 Total energy in the final basis set =    -2089.0543869715
   35   -2089.0543990022      5.96e-09  Convergence criterion met
 Total energy in the final basis set =    -2089.0543990022
   30   -2089.0544075358      7.57e-09  Convergence criterion met
 Total energy in the final basis set =    -2089.0544075358
   28   -2089.0544143497      8.42e-09  Convergence criterion met
 Total energy in the final basis set =    -2089.0544143497
   31   -2089.0544163086      4.05e-09  Convergence criterion met
 Total energy in the final basis set =    -2089.0544163086
   27   -2089.0544173939      4.19e-09  Convergence criterion met
 Total energy in the final basis set =    -2089.0544173939

             Standard Nuclear Orientation (Angstroms)
    I     Atom           X                Y                Z
 ----------------------------------------------------------------
    1      Fe     -1.0134632384    -3.5240105655    -0.2904213269
    2      O      -1.4160009111    -2.1026622370     0.2034233063
    3      O      -1.2923723151    -0.9677494583     1.1708522001
    4      H       2.2631476791     2.7806655013     1.1510001935
    5      H       2.1264804332     2.1020317717     2.8079876256
    6      C       1.7811967702     1.9902973817     1.7607629112
    7      H       0.6863896593     2.1601155255     1.7470433310
    8      H       4.2809844741     2.2165468948     0.1701750116
    9      H       4.0797814629     0.8088718607     2.3273427448
   10      C       4.5322316705     1.1345468608     0.1871294985
   11      C       2.1849317315     0.5474124782     1.2249833302
   12      C       3.7687875900     0.4079116901     1.3390022099
   13      H       5.6289434421     1.0438963299     0.3408851310
   14      H      -2.8966082832    -0.9391624851    -1.3639218613
   15      H       1.9526332561    -0.4047605072     3.2095133746
   16      C       1.5926063582    -0.5810462698     2.1761545101
   17      C       1.7098706177     0.3606184119    -0.2751860174
   18      H       4.5189877161     1.0646021770    -2.0304135658
   19      H       0.4865400262    -0.6092142513     2.1914646059
   20      C       4.1340440908     0.4703603740    -1.1712968627
   21      C       0.1879526491     0.3116567101    -0.6671622009
   22      C      -2.8417866206     0.1582941653    -1.5392524140
   23      C       2.5952183959     0.3111259647    -1.3392955171
   24      H      -2.1657438685     0.3349335788    -2.4032043180
   25      H       2.2917115235     1.0723583919    -3.3788889709
   26      H      -3.8534141717     0.5162663622    -1.8075214703
   27      H       4.0375321049    -0.6701916623     1.3167712580
   28      C       2.1949910041     0.1109840992    -2.8276186776
   29      H       1.1634473384    -0.2613947764    -2.9696715967
   30      C      -1.0142307580     0.3381750322     0.4069091925
   31      H       1.9573634878    -1.5761790847     1.8507879728
   32      H       4.6000179583    -0.5409967587    -1.2506198274
   33      C      -2.3181725470     0.8697006387    -0.2693860739
   34      H       2.8997912828    -0.6065192268    -3.2979794845
   35      H      -4.6976699519     2.2265551210    -1.0056800740
   36      C      -2.9944882300     1.8950982750     0.3880893495
   37      C      -4.2292993953     2.5652427220    -0.0611943134
   38      H      -2.5606686071     2.2845639315     1.3335638649
   39      C      -4.8081008046     3.5878980747     0.6519972452
   40      H      -5.7411423848     4.0742954337     0.3076869725
   41      H      -4.3688408080     3.9611076380     1.5981037937
   42      H      -0.7529547078     0.9987915402     1.2708476500
   43      O      -0.1655923614     1.5188868568    -1.5254690161
   44      H      -0.0072540995    -0.5612267247    -1.3416646875
   45      H       0.3761451426     2.2812523744    -1.0511543863
 ----------------------------------------------------------------

   25   -2089.0544174821      6.34e-10  Convergence criterion met
 Total energy in the final basis set =    -2089.0544174821
 Final energy is   -2089.05441748207
 **  OPTIMIZATION CONVERGED  **

                    Orbital Energies (a.u.)
 --------------------------------------------------------------

 Alpha MOs
 -- Occupied --
******* -29.495 -26.049 -26.048 -26.044 -18.832 -18.796 -18.756
 -9.978  -9.966  -9.916  -9.905  -9.894  -9.894  -9.894  -9.882
 -9.880  -9.874  -9.870  -9.867  -9.861  -9.854  -9.853  -9.852
 -3.687  -2.527  -2.525  -2.518  -1.113  -1.021  -0.950  -0.834
 -0.826  -0.784  -0.774  -0.759  -0.731  -0.714  -0.694  -0.687
 -0.671  -0.654  -0.617  -0.600  -0.578  -0.576  -0.560  -0.542
 -0.521  -0.506  -0.495  -0.489  -0.476  -0.471  -0.461  -0.457
 -0.452  -0.450  -0.444  -0.443  -0.438  -0.430  -0.425  -0.422
 -0.420  -0.416  -0.411  -0.405  -0.395  -0.391  -0.378  -0.373
 -0.372  -0.360  -0.355  -0.354  -0.354  -0.350  -0.341  -0.335
 -0.326  -0.317  -0.306  -0.284  -0.277  -0.269  -0.259

 Beta MOs
 -- Occupied --
******* -29.457 -26.017 -26.016 -26.016 -18.830 -18.797 -18.759
 -9.978  -9.966  -9.916  -9.906  -9.894  -9.894  -9.893  -9.884
 -9.881  -9.875  -9.870  -9.867  -9.861  -9.854  -9.853  -9.852
 -3.486  -2.338  -2.317  -2.314  -1.111  -1.031  -0.948  -0.836
 -0.828  -0.786  -0.774  -0.760  -0.732  -0.716  -0.695  -0.687
 -0.671  -0.654  -0.615  -0.600  -0.577  -0.576  -0.556  -0.543
 -0.522  -0.507  -0.494  -0.490  -0.474  -0.471  -0.461  -0.456
 -0.451  -0.446  -0.444  -0.442  -0.435  -0.430  -0.423  -0.422
 -0.420  -0.415  -0.411  -0.395  -0.393  -0.385  -0.375  -0.373
 -0.372  -0.361  -0.356  -0.341  -0.327  -0.319  -0.304  -0.295
 -0.290  -0.273  -0.265

          Ground-State Mulliken Net Atomic Charges

     Atom                 Charge (a.u.)    Spin (a.u.)
  --------------------------------------------------------
      1 Fe                    0.405865       4.623535
      2 O                    -0.210723      -0.106610
      3 O                     0.025154       0.037126
      4 H                     0.078128       0.000058
      5 H                     0.089673      -0.000213
      6 C                    -0.214716      -0.002369
      7 H                     0.055433       0.000030
      8 H                     0.072976       0.000011
      9 H                     0.080875      -0.000038
     10 C                    -0.128757      -0.000538
     11 C                     0.025186       0.001351
     12 C                    -0.127206      -0.000043
     13 H                     0.087550      -0.000004
     14 H                     0.089726      -0.002014
     15 H                     0.086315       0.000130
     16 C                    -0.219345      -0.002667
     17 C                    -0.033640      -0.040937
     18 H                     0.089325      -0.001512
     19 H                     0.064361       0.000068
     20 C                    -0.133793       0.001022
     21 C                     0.009196       0.014462
     22 C                    -0.222235       0.001662
     23 C                     0.021383      -0.037021
     24 H                     0.101129      -0.002482
     25 H                     0.096035      -0.001474
     26 H                     0.101061      -0.000173
     27 H                     0.075421      -0.000023
     28 C                    -0.223166       0.001862
     29 H                     0.078103      -0.000447
     30 C                     0.006724      -0.004796
     31 H                     0.075774       0.000113
     32 H                     0.090802      -0.002433
     33 C                     0.018887      -0.056366
     34 H                     0.097040      -0.000375
     35 H                     0.101096      -0.000250
     36 C                    -0.052598      -0.073066
     37 C                    -0.060639       0.008224
     38 H                     0.092603       0.002847
     39 C                    -0.100935      -0.131782
     40 H                     0.113590       0.005434
     41 H                     0.103391       0.005383
     42 H                     0.114826       0.005531
     43 O                    -0.132050      -0.242984
     44 H                     0.099953      -0.006913
     45 H                     0.212224       0.008681
  --------------------------------------------------------
  Sum of atomic charges =     1.000000

                    Cartesian Multipole Moments
 -----------------------------------------------------------------
    Charge (ESU x 10^10)
                 4.8032
    Dipole Moment (Debye)
         X      -3.1597      Y       2.1309      Z      -0.6731
       Tot       3.8701
    Quadrupole Moments (Debye-Ang)
        XX     -83.6379     XY      -7.4995     YY     -97.7170
        XZ      -2.0124     YZ       2.8818     ZZ    -115.1240

 Total job time:  1757.27s(wall), 19203.95s(cpu)
        *  Thank you very much for using Q-Chem.  Have a nice day.  *
